 vasp.6.4.2 20Jul23 (build Jun 20 2024 14:04:24) complex                         
 executed on             LinuxGNU date 2026.03.10  01:27:59
 running   28 mpi-ranks, with    1 threads/rank, on    1 nodes
 distrk:  each k-point on   28 cores,    1 groups
 distr:  one band on NCORE=   7 cores,    4 groups


--------------------------------------------------------------------------------------------------------


 INCAR:
   SYSTEM = PtS2
   ALGO = Normal
   LREAL = False
   PREC = Accurate
   ICHARG = 11
   LORBIT = 11
   ISYM = 2
   LASPH = True
   IBRION = -1
   ISIF = 2
   NSW = 0
   NELM = 100
   NELMIN = 5
   ISMEAR = 0
   SIGMA = 0.05
   ENCUT = 600
   EDIFF = 1E-8
   LCHARG = True
   LWAVE = False
   NPAR = 4
   LDAU = True
   LDAUTYPE = 2
   LDAUL = 2 -1
   LDAUU = 3.00 0.00
   LDAUJ = 0.00 0.00
   LMAXMIX = 4
   LDAUPRINT = 1

 POTCAR:    PAW_PBE Pt 04Feb2005                  
 POTCAR:    PAW_PBE S 06Sep2000                   
 POTCAR:    PAW_PBE Pt 04Feb2005                  
   SHA256 =  3ed90460adef76debcff1cfb73ee1349b515b1a3db03439735b44de3a8db7dc8 Pt/POTCAR             
   COPYR  = (c) Copyright 04Feb2005 Georg Kresse                                                    
   COPYR  = This file is part of the software VASP. Any use, copying, and all other rights are regul
   COPYR  = If you do not have a valid VASP license, you may not use, copy or distribute this file. 
   VRHFIN =Pt: s1d9                                                                                 
   LEXCH  = PE                                                                                      
   EATOM  =   729.1176 eV,   53.5886 Ry                                                             
                                                                                                    
   TITEL  = PAW_PBE Pt 04Feb2005                                                                    
   LULTRA =        F    use ultrasoft PP ?                                                          
   IUNSCR =        1    unscreen: 0-lin 1-nonlin 2-no                                               
   RPACOR =    2.330    partial core radius                                                         
   POMASS =  195.080; ZVAL   =   10.000    mass and valenz                                          
   RCORE  =    2.600    outmost cutoff radius                                                       
   RWIGS  =    2.750; RWIGS  =    1.455    wigner-seitz radius (au A)                               
   ENMAX  =  230.283; ENMIN  =  172.712 eV                                                          
   ICORE  =        3    local potential                                                             
   LCOR   =        T    correct aug charges                                                         
   LPAW   =        T    paw PP                                                                      
   EAUG   =  358.966                                                                                
   DEXC   =    0.000                                                                                
   RMAX   =    2.658    core radius for proj-oper                                                   
   RAUG   =    1.300    factor for augmentation sphere                                              
   RDEP   =    2.761    radius for radial grids                                                     
   RDEPT  =    2.203    core radius for aug-charge                                                  
                                                                                                    
   Atomic configuration                                                                             
   16 entries                                                                                       
     n  l   j            E        occ.                                                              
     1  0  0.50    -78401.1885   2.0000                                                             
     2  0  0.50    -13770.7750   2.0000                                                             
     2  1  1.50    -11931.0468   6.0000                                                             
     3  0  0.50     -3234.7234   2.0000                                                             
     3  1  1.50     -2699.2216   6.0000                                                             
     3  2  2.50     -2119.5714  10.0000                                                             
     4  0  0.50      -695.1528   2.0000                                                             
     4  1  1.50      -519.6034   6.0000                                                             
     4  2  2.50      -306.6786  10.0000                                                             
     4  3  3.50       -70.1041  14.0000                                                             
     5  0  0.50      -101.7747   2.0000                                                             
     5  1  1.50       -55.9873   6.0000                                                             
     5  2  2.50        -6.1423   9.0000                                                             
     6  0  0.50        -5.6573   1.0000                                                             
     6  1  1.50        -6.8029   0.0000                                                             
     5  3  2.50        -1.3606   0.0000                                                             
   Description                                                                                      
     l       E           TYP  RCUT    TYP  RCUT                                                     
     2     -6.1423404     23  2.500                                                                 
     2     -7.5029230     23  2.500                                                                 
     0     -5.6573207     23  2.500                                                                 
     0      0.7416693     23  2.500                                                                 
     1     -2.7211652     23  2.600                                                                 
     1     20.4087390     23  2.600                                                                 
     3     -1.3605826     23  2.500                                                                 
  local pseudopotential read in
  partial core-charges read in
  partial kinetic energy density read in
  atomic valenz-charges read in
  non local Contribution for L=           2  read in
    real space projection operators read in
  non local Contribution for L=           2  read in
    real space projection operators read in
  non local Contribution for L=           0  read in
    real space projection operators read in
  non local Contribution for L=           0  read in
    real space projection operators read in
  non local Contribution for L=           1  read in
    real space projection operators read in
  non local Contribution for L=           1  read in
    real space projection operators read in
    PAW grid and wavefunctions read in

   number of l-projection  operators is LMAX  =           6
   number of lm-projection operators is LMMAX =          18

 POTCAR:    PAW_PBE S 06Sep2000                   
   SHA256 =  0fc7481fb0695f01bdc6462160264c5c84044ae9ec85a907d398b887a2bc3132 S/POTCAR              
   COPYR  = (c) Copyright 06Sep2000 Georg Kresse                                                    
   COPYR  = This file is part of the software VASP. Any use, copying, and all other rights are regul
   COPYR  = If you do not have a valid VASP license, you may not use, copy or distribute this file. 
   VRHFIN =S : s2p4                                                                                 
   LEXCH  = PE                                                                                      
   EATOM  =   276.8230 eV,   20.3459 Ry                                                             
                                                                                                    
   TITEL  = PAW_PBE S 06Sep2000                                                                     
   LULTRA =        F    use ultrasoft PP ?                                                          
   IUNSCR =        1    unscreen: 0-lin 1-nonlin 2-no                                               
   RPACOR =    1.500    partial core radius                                                         
   POMASS =   32.066; ZVAL   =    6.000    mass and valenz                                          
   RCORE  =    1.900    outmost cutoff radius                                                       
   RWIGS  =    2.200; RWIGS  =    1.164    wigner-seitz radius (au A)                               
   ENMAX  =  258.689; ENMIN  =  194.016 eV                                                          
   ICORE  =        2    local potential                                                             
   LCOR   =        T    correct aug charges                                                         
   LPAW   =        T    paw PP                                                                      
   EAUG   =  335.092                                                                                
   DEXC   =    0.000                                                                                
   RMAX   =    1.942    core radius for proj-oper                                                   
   RAUG   =    1.300    factor for augmentation sphere                                              
   RDEP   =    1.954    radius for radial grids                                                     
   RDEPT  =    1.744    core radius for aug-charge                                                  
                                                                                                    
   Atomic configuration                                                                             
    6 entries                                                                                       
     n  l   j            E        occ.                                                              
     1  0  0.50     -2405.8406   2.0000                                                             
     2  0  0.50      -211.7007   2.0000                                                             
     2  1  1.50      -156.4958   6.0000                                                             
     3  0  0.50       -17.2562   2.0000                                                             
     3  1  0.50        -7.0085   4.0000                                                             
     3  2  1.50        -6.8029   0.0000                                                             
   Description                                                                                      
     l       E           TYP  RCUT    TYP  RCUT                                                     
     0    -17.2561641     23  1.900                                                                 
     0    -15.8743224     23  1.900                                                                 
     1     -7.0085400     23  1.900                                                                 
     1     -2.7779785     23  1.900                                                                 
     2     -6.8029130     23  1.900                                                                 
  local pseudopotential read in
  partial core-charges read in
  partial kinetic energy density read in
  atomic valenz-charges read in
  non local Contribution for L=           0  read in
    real space projection operators read in
  non local Contribution for L=           0  read in
    real space projection operators read in
  non local Contribution for L=           1  read in
    real space projection operators read in
  non local Contribution for L=           1  read in
    real space projection operators read in
    PAW grid and wavefunctions read in

   number of l-projection  operators is LMAX  =           4
   number of lm-projection operators is LMMAX =           8

  PAW_PBE Pt 04Feb2005                  :
 energy of atom  1       EATOM= -729.1176
 kinetic energy error for atom=    0.0012 (will be added to EATOM!!)
  PAW_PBE S 06Sep2000                   :
 energy of atom  2       EATOM= -276.8230
 kinetic energy error for atom=    0.0009 (will be added to EATOM!!)


 POSCAR: PtS
  positions in direct lattice
  velocities in cartesian coordinates
 exchange correlation table for  LEXCH =        8
   RHO(1)=    0.500       N(1)  =     2000
   RHO(2)=  100.500       N(2)  =     4000



--------------------------------------------------------------------------------------------------------


 ion  position               nearest neighbor table
   1  0.000  0.000  0.000-   2 2.39   3 2.39   3 2.39   2 2.39   2 2.39   3 2.39
   2  0.667  0.333  0.939-   1 2.39   1 2.39   1 2.39
   3  0.333  0.667  0.061-   1 2.39   1 2.39   1 2.39

  LATTYP: Found a hexagonal cell.
 ALAT       =     3.5445490684
 C/A-ratio  =     5.7282505446
  
  Lattice vectors:
  
 A1 = (   3.5445490684,   0.0000000000,   0.0000000000)
 A2 = (  -1.7722745342,   3.0696695382,   0.0000000000)
 A3 = (   0.0000000000,   0.0000000000,  20.3040651314)


Analysis of symmetry for initial positions (statically):
=====================================================================
 Subroutine PRICEL returns:
 Original cell was already a primitive cell.
 

 Routine SETGRP: Setting up the symmetry group for a 
 hexagonal supercell.


 Subroutine GETGRP returns: Found 12 space group operations
 (whereof 12 operations were pure point group operations)
 out of a pool of 24 trial point group operations.


The static configuration has the point symmetry D_3d.


Analysis of symmetry for dynamics (positions and initial velocities):
=====================================================================
 Subroutine PRICEL returns:
 Original cell was already a primitive cell.
 

 Routine SETGRP: Setting up the symmetry group for a 
 hexagonal supercell.


 Subroutine GETGRP returns: Found 12 space group operations
 (whereof 12 operations were pure point group operations)
 out of a pool of 24 trial point group operations.


The dynamic configuration has the point symmetry D_3d.


 Subroutine INISYM returns: Found 12 space group operations
 (whereof 12 operations are pure point group operations),
 and found     1 'primitive' translations


----------------------------------------------------------------------------------------

                                     Primitive cell                                     

  volume of cell :     220.9203

  direct lattice vectors                    reciprocal lattice vectors
     3.544549068  0.000000000  0.000000000     0.282123334  0.162883983 -0.000000000
    -1.772274534  3.069669538  0.000000000     0.000000000  0.325767965  0.000000000
     0.000000000  0.000000000 20.304065131     0.000000000 -0.000000000  0.049251221

  length of vectors
     3.544549068  3.544549068 20.304065131     0.325767965  0.325767965  0.049251221

  position of ions in fractional coordinates (direct lattice)
     0.000000000  0.000000000  0.000000000
     0.666666667  0.333333333  0.939255364
     0.333333333  0.666666667  0.060744636

  ion indices of the primitive-cell ions
   primitive index   ion index
                 1           1
                 2           2
                 3           3

----------------------------------------------------------------------------------------



 KPOINTS: HEX (hexagonal) G-M-K-G                 

Interpolating k-points between supplied coordinates.

 Line segments in fractional coordinates (reciprocal lattice):
    0.000000  0.000000  0.000000  ...  0.333333  0.333333  0.000000
    0.333333  0.333333  0.000000  ...  0.500000  0.000000  0.000000
    0.500000  0.000000  0.000000  ...  0.000000  0.000000  0.000000

 Generated   120 points on each line segment, for a total of    360 k-points:

 Following reciprocal coordinates:
            Coordinates               Weight
  0.000000  0.000000  0.000000      0.002778
  0.002801  0.002801  0.000000      0.002778
  0.005602  0.005602  0.000000      0.002778
  0.008403  0.008403  0.000000      0.002778
  0.011204  0.011204  0.000000      0.002778
  0.014006  0.014006  0.000000      0.002778
  0.016807  0.016807  0.000000      0.002778
  0.019608  0.019608  0.000000      0.002778
  0.022409  0.022409  0.000000      0.002778
  0.025210  0.025210  0.000000      0.002778
  0.028011  0.028011  0.000000      0.002778
  0.030812  0.030812  0.000000      0.002778
  0.033613  0.033613  0.000000      0.002778
  0.036415  0.036415  0.000000      0.002778
  0.039216  0.039216  0.000000      0.002778
  0.042017  0.042017  0.000000      0.002778
  0.044818  0.044818  0.000000      0.002778
  0.047619  0.047619  0.000000      0.002778
  0.050420  0.050420  0.000000      0.002778
  0.053221  0.053221  0.000000      0.002778
  0.056022  0.056022  0.000000      0.002778
  0.058824  0.058824  0.000000      0.002778
  0.061625  0.061625  0.000000      0.002778
  0.064426  0.064426  0.000000      0.002778
  0.067227  0.067227  0.000000      0.002778
  0.070028  0.070028  0.000000      0.002778
  0.072829  0.072829  0.000000      0.002778
  0.075630  0.075630  0.000000      0.002778
  0.078431  0.078431  0.000000      0.002778
  0.081232  0.081232  0.000000      0.002778
  0.084034  0.084034  0.000000      0.002778
  0.086835  0.086835  0.000000      0.002778
  0.089636  0.089636  0.000000      0.002778
  0.092437  0.092437  0.000000      0.002778
  0.095238  0.095238  0.000000      0.002778
  0.098039  0.098039  0.000000      0.002778
  0.100840  0.100840  0.000000      0.002778
  0.103641  0.103641  0.000000      0.002778
  0.106443  0.106443  0.000000      0.002778
  0.109244  0.109244  0.000000      0.002778
  0.112045  0.112045  0.000000      0.002778
  0.114846  0.114846  0.000000      0.002778
  0.117647  0.117647  0.000000      0.002778
  0.120448  0.120448  0.000000      0.002778
  0.123249  0.123249  0.000000      0.002778
  0.126050  0.126050  0.000000      0.002778
  0.128852  0.128852  0.000000      0.002778
  0.131653  0.131653  0.000000      0.002778
  0.134454  0.134454  0.000000      0.002778
  0.137255  0.137255  0.000000      0.002778
  0.140056  0.140056  0.000000      0.002778
  0.142857  0.142857  0.000000      0.002778
  0.145658  0.145658  0.000000      0.002778
  0.148459  0.148459  0.000000      0.002778
  0.151261  0.151261  0.000000      0.002778
  0.154062  0.154062  0.000000      0.002778
  0.156863  0.156863  0.000000      0.002778
  0.159664  0.159664  0.000000      0.002778
  0.162465  0.162465  0.000000      0.002778
  0.165266  0.165266  0.000000      0.002778
  0.168067  0.168067  0.000000      0.002778
  0.170868  0.170868  0.000000      0.002778
  0.173669  0.173669  0.000000      0.002778
  0.176471  0.176471  0.000000      0.002778
  0.179272  0.179272  0.000000      0.002778
  0.182073  0.182073  0.000000      0.002778
  0.184874  0.184874  0.000000      0.002778
  0.187675  0.187675  0.000000      0.002778
  0.190476  0.190476  0.000000      0.002778
  0.193277  0.193277  0.000000      0.002778
  0.196078  0.196078  0.000000      0.002778
  0.198880  0.198880  0.000000      0.002778
  0.201681  0.201681  0.000000      0.002778
  0.204482  0.204482  0.000000      0.002778
  0.207283  0.207283  0.000000      0.002778
  0.210084  0.210084  0.000000      0.002778
  0.212885  0.212885  0.000000      0.002778
  0.215686  0.215686  0.000000      0.002778
  0.218487  0.218487  0.000000      0.002778
  0.221289  0.221289  0.000000      0.002778
  0.224090  0.224090  0.000000      0.002778
  0.226891  0.226891  0.000000      0.002778
  0.229692  0.229692  0.000000      0.002778
  0.232493  0.232493  0.000000      0.002778
  0.235294  0.235294  0.000000      0.002778
  0.238095  0.238095  0.000000      0.002778
  0.240896  0.240896  0.000000      0.002778
  0.243697  0.243697  0.000000      0.002778
  0.246499  0.246499  0.000000      0.002778
  0.249300  0.249300  0.000000      0.002778
  0.252101  0.252101  0.000000      0.002778
  0.254902  0.254902  0.000000      0.002778
  0.257703  0.257703  0.000000      0.002778
  0.260504  0.260504  0.000000      0.002778
  0.263305  0.263305  0.000000      0.002778
  0.266106  0.266106  0.000000      0.002778
  0.268908  0.268908  0.000000      0.002778
  0.271709  0.271709  0.000000      0.002778
  0.274510  0.274510  0.000000      0.002778
  0.277311  0.277311  0.000000      0.002778
  0.280112  0.280112  0.000000      0.002778
  0.282913  0.282913  0.000000      0.002778
  0.285714  0.285714  0.000000      0.002778
  0.288515  0.288515  0.000000      0.002778
  0.291317  0.291317  0.000000      0.002778
  0.294118  0.294118  0.000000      0.002778
  0.296919  0.296919  0.000000      0.002778
  0.299720  0.299720  0.000000      0.002778
  0.302521  0.302521  0.000000      0.002778
  0.305322  0.305322  0.000000      0.002778
  0.308123  0.308123  0.000000      0.002778
  0.310924  0.310924  0.000000      0.002778
  0.313725  0.313725  0.000000      0.002778
  0.316527  0.316527  0.000000      0.002778
  0.319328  0.319328  0.000000      0.002778
  0.322129  0.322129  0.000000      0.002778
  0.324930  0.324930  0.000000      0.002778
  0.327731  0.327731  0.000000      0.002778
  0.330532  0.330532  0.000000      0.002778
  0.333333  0.333333  0.000000      0.002778
  0.333333  0.333333  0.000000      0.002778
  0.334734  0.330532  0.000000      0.002778
  0.336134  0.327731  0.000000      0.002778
  0.337535  0.324930  0.000000      0.002778
  0.338936  0.322129  0.000000      0.002778
  0.340336  0.319328  0.000000      0.002778
  0.341737  0.316527  0.000000      0.002778
  0.343137  0.313725  0.000000      0.002778
  0.344538  0.310924  0.000000      0.002778
  0.345938  0.308123  0.000000      0.002778
  0.347339  0.305322  0.000000      0.002778
  0.348739  0.302521  0.000000      0.002778
  0.350140  0.299720  0.000000      0.002778
  0.351541  0.296919  0.000000      0.002778
  0.352941  0.294118  0.000000      0.002778
  0.354342  0.291317  0.000000      0.002778
  0.355742  0.288515  0.000000      0.002778
  0.357143  0.285714  0.000000      0.002778
  0.358543  0.282913  0.000000      0.002778
  0.359944  0.280112  0.000000      0.002778
  0.361345  0.277311  0.000000      0.002778
  0.362745  0.274510  0.000000      0.002778
  0.364146  0.271709  0.000000      0.002778
  0.365546  0.268908  0.000000      0.002778
  0.366947  0.266106  0.000000      0.002778
  0.368347  0.263305  0.000000      0.002778
  0.369748  0.260504  0.000000      0.002778
  0.371148  0.257703  0.000000      0.002778
  0.372549  0.254902  0.000000      0.002778
  0.373950  0.252101  0.000000      0.002778
  0.375350  0.249300  0.000000      0.002778
  0.376751  0.246499  0.000000      0.002778
  0.378151  0.243697  0.000000      0.002778
  0.379552  0.240896  0.000000      0.002778
  0.380952  0.238095  0.000000      0.002778
  0.382353  0.235294  0.000000      0.002778
  0.383753  0.232493  0.000000      0.002778
  0.385154  0.229692  0.000000      0.002778
  0.386555  0.226891  0.000000      0.002778
  0.387955  0.224090  0.000000      0.002778
  0.389356  0.221289  0.000000      0.002778
  0.390756  0.218487  0.000000      0.002778
  0.392157  0.215686  0.000000      0.002778
  0.393557  0.212885  0.000000      0.002778
  0.394958  0.210084  0.000000      0.002778
  0.396359  0.207283  0.000000      0.002778
  0.397759  0.204482  0.000000      0.002778
  0.399160  0.201681  0.000000      0.002778
  0.400560  0.198880  0.000000      0.002778
  0.401961  0.196078  0.000000      0.002778
  0.403361  0.193277  0.000000      0.002778
  0.404762  0.190476  0.000000      0.002778
  0.406162  0.187675  0.000000      0.002778
  0.407563  0.184874  0.000000      0.002778
  0.408964  0.182073  0.000000      0.002778
  0.410364  0.179272  0.000000      0.002778
  0.411765  0.176471  0.000000      0.002778
  0.413165  0.173669  0.000000      0.002778
  0.414566  0.170868  0.000000      0.002778
  0.415966  0.168067  0.000000      0.002778
  0.417367  0.165266  0.000000      0.002778
  0.418768  0.162465  0.000000      0.002778
  0.420168  0.159664  0.000000      0.002778
  0.421569  0.156863  0.000000      0.002778
  0.422969  0.154062  0.000000      0.002778
  0.424370  0.151261  0.000000      0.002778
  0.425770  0.148459  0.000000      0.002778
  0.427171  0.145658  0.000000      0.002778
  0.428571  0.142857  0.000000      0.002778
  0.429972  0.140056  0.000000      0.002778
  0.431373  0.137255  0.000000      0.002778
  0.432773  0.134454  0.000000      0.002778
  0.434174  0.131653  0.000000      0.002778
  0.435574  0.128852  0.000000      0.002778
  0.436975  0.126050  0.000000      0.002778
  0.438375  0.123249  0.000000      0.002778
  0.439776  0.120448  0.000000      0.002778
  0.441176  0.117647  0.000000      0.002778
  0.442577  0.114846  0.000000      0.002778
  0.443978  0.112045  0.000000      0.002778
  0.445378  0.109244  0.000000      0.002778
  0.446779  0.106443  0.000000      0.002778
  0.448179  0.103641  0.000000      0.002778
  0.449580  0.100840  0.000000      0.002778
  0.450980  0.098039  0.000000      0.002778
  0.452381  0.095238  0.000000      0.002778
  0.453782  0.092437  0.000000      0.002778
  0.455182  0.089636  0.000000      0.002778
  0.456583  0.086835  0.000000      0.002778
  0.457983  0.084034  0.000000      0.002778
  0.459384  0.081232  0.000000      0.002778
  0.460784  0.078431  0.000000      0.002778
  0.462185  0.075630  0.000000      0.002778
  0.463585  0.072829  0.000000      0.002778
  0.464986  0.070028  0.000000      0.002778
  0.466387  0.067227  0.000000      0.002778
  0.467787  0.064426  0.000000      0.002778
  0.469188  0.061625  0.000000      0.002778
  0.470588  0.058824  0.000000      0.002778
  0.471989  0.056022  0.000000      0.002778
  0.473389  0.053221  0.000000      0.002778
  0.474790  0.050420  0.000000      0.002778
  0.476190  0.047619  0.000000      0.002778
  0.477591  0.044818  0.000000      0.002778
  0.478992  0.042017  0.000000      0.002778
  0.480392  0.039216  0.000000      0.002778
  0.481793  0.036415  0.000000      0.002778
  0.483193  0.033613  0.000000      0.002778
  0.484594  0.030812  0.000000      0.002778
  0.485994  0.028011  0.000000      0.002778
  0.487395  0.025210  0.000000      0.002778
  0.488796  0.022409  0.000000      0.002778
  0.490196  0.019608  0.000000      0.002778
  0.491597  0.016807  0.000000      0.002778
  0.492997  0.014006  0.000000      0.002778
  0.494398  0.011204  0.000000      0.002778
  0.495798  0.008403  0.000000      0.002778
  0.497199  0.005602  0.000000      0.002778
  0.498599  0.002801  0.000000      0.002778
  0.500000  0.000000  0.000000      0.002778
  0.500000  0.000000  0.000000      0.002778
  0.495798  0.000000  0.000000      0.002778
  0.491597  0.000000  0.000000      0.002778
  0.487395  0.000000  0.000000      0.002778
  0.483193  0.000000  0.000000      0.002778
  0.478992  0.000000  0.000000      0.002778
  0.474790  0.000000  0.000000      0.002778
  0.470588  0.000000  0.000000      0.002778
  0.466387  0.000000  0.000000      0.002778
  0.462185  0.000000  0.000000      0.002778
  0.457983  0.000000  0.000000      0.002778
  0.453782  0.000000  0.000000      0.002778
  0.449580  0.000000  0.000000      0.002778
  0.445378  0.000000  0.000000      0.002778
  0.441176  0.000000  0.000000      0.002778
  0.436975  0.000000  0.000000      0.002778
  0.432773  0.000000  0.000000      0.002778
  0.428571  0.000000  0.000000      0.002778
  0.424370  0.000000  0.000000      0.002778
  0.420168  0.000000  0.000000      0.002778
  0.415966  0.000000  0.000000      0.002778
  0.411765  0.000000  0.000000      0.002778
  0.407563  0.000000  0.000000      0.002778
  0.403361  0.000000  0.000000      0.002778
  0.399160  0.000000  0.000000      0.002778
  0.394958  0.000000  0.000000      0.002778
  0.390756  0.000000  0.000000      0.002778
  0.386555  0.000000  0.000000      0.002778
  0.382353  0.000000  0.000000      0.002778
  0.378151  0.000000  0.000000      0.002778
  0.373950  0.000000  0.000000      0.002778
  0.369748  0.000000  0.000000      0.002778
  0.365546  0.000000  0.000000      0.002778
  0.361345  0.000000  0.000000      0.002778
  0.357143  0.000000  0.000000      0.002778
  0.352941  0.000000  0.000000      0.002778
  0.348739  0.000000  0.000000      0.002778
  0.344538  0.000000  0.000000      0.002778
  0.340336  0.000000  0.000000      0.002778
  0.336134  0.000000  0.000000      0.002778
  0.331933  0.000000  0.000000      0.002778
  0.327731  0.000000  0.000000      0.002778
  0.323529  0.000000  0.000000      0.002778
  0.319328  0.000000  0.000000      0.002778
  0.315126  0.000000  0.000000      0.002778
  0.310924  0.000000  0.000000      0.002778
  0.306723  0.000000  0.000000      0.002778
  0.302521  0.000000  0.000000      0.002778
  0.298319  0.000000  0.000000      0.002778
  0.294118  0.000000  0.000000      0.002778
  0.289916  0.000000  0.000000      0.002778
  0.285714  0.000000  0.000000      0.002778
  0.281513  0.000000  0.000000      0.002778
  0.277311  0.000000  0.000000      0.002778
  0.273109  0.000000  0.000000      0.002778
  0.268908  0.000000  0.000000      0.002778
  0.264706  0.000000  0.000000      0.002778
  0.260504  0.000000  0.000000      0.002778
  0.256303  0.000000  0.000000      0.002778
  0.252101  0.000000  0.000000      0.002778
  0.247899  0.000000  0.000000      0.002778
  0.243697  0.000000  0.000000      0.002778
  0.239496  0.000000  0.000000      0.002778
  0.235294  0.000000  0.000000      0.002778
  0.231092  0.000000  0.000000      0.002778
  0.226891  0.000000  0.000000      0.002778
  0.222689  0.000000  0.000000      0.002778
  0.218487  0.000000  0.000000      0.002778
  0.214286  0.000000  0.000000      0.002778
  0.210084  0.000000  0.000000      0.002778
  0.205882  0.000000  0.000000      0.002778
  0.201681  0.000000  0.000000      0.002778
  0.197479  0.000000  0.000000      0.002778
  0.193277  0.000000  0.000000      0.002778
  0.189076  0.000000  0.000000      0.002778
  0.184874  0.000000  0.000000      0.002778
  0.180672  0.000000  0.000000      0.002778
  0.176471  0.000000  0.000000      0.002778
  0.172269  0.000000  0.000000      0.002778
  0.168067  0.000000  0.000000      0.002778
  0.163866  0.000000  0.000000      0.002778
  0.159664  0.000000  0.000000      0.002778
  0.155462  0.000000  0.000000      0.002778
  0.151261  0.000000  0.000000      0.002778
  0.147059  0.000000  0.000000      0.002778
  0.142857  0.000000  0.000000      0.002778
  0.138655  0.000000  0.000000      0.002778
  0.134454  0.000000  0.000000      0.002778
  0.130252  0.000000  0.000000      0.002778
  0.126050  0.000000  0.000000      0.002778
  0.121849  0.000000  0.000000      0.002778
  0.117647  0.000000  0.000000      0.002778
  0.113445  0.000000  0.000000      0.002778
  0.109244  0.000000  0.000000      0.002778
  0.105042  0.000000  0.000000      0.002778
  0.100840  0.000000  0.000000      0.002778
  0.096639  0.000000  0.000000      0.002778
  0.092437  0.000000  0.000000      0.002778
  0.088235  0.000000  0.000000      0.002778
  0.084034  0.000000  0.000000      0.002778
  0.079832  0.000000  0.000000      0.002778
  0.075630  0.000000  0.000000      0.002778
  0.071429  0.000000  0.000000      0.002778
  0.067227  0.000000  0.000000      0.002778
  0.063025  0.000000  0.000000      0.002778
  0.058824  0.000000  0.000000      0.002778
  0.054622  0.000000  0.000000      0.002778
  0.050420  0.000000  0.000000      0.002778
  0.046218  0.000000  0.000000      0.002778
  0.042017  0.000000  0.000000      0.002778
  0.037815  0.000000  0.000000      0.002778
  0.033613  0.000000  0.000000      0.002778
  0.029412  0.000000  0.000000      0.002778
  0.025210  0.000000  0.000000      0.002778
  0.021008  0.000000  0.000000      0.002778
  0.016807  0.000000  0.000000      0.002778
  0.012605  0.000000  0.000000      0.002778
  0.008403  0.000000  0.000000      0.002778
  0.004202  0.000000  0.000000      0.002778
  0.000000  0.000000  0.000000      0.002778

 Following cartesian coordinates:
            Coordinates               Weight
  0.000000  0.000000  0.000000      0.002778
  0.000790  0.001369  0.000000      0.002778
  0.001581  0.002738  0.000000      0.002778
  0.002371  0.004106  0.000000      0.002778
  0.003161  0.005475  0.000000      0.002778
  0.003951  0.006844  0.000000      0.002778
  0.004742  0.008213  0.000000      0.002778
  0.005532  0.009581  0.000000      0.002778
  0.006322  0.010950  0.000000      0.002778
  0.007112  0.012319  0.000000      0.002778
  0.007903  0.013688  0.000000      0.002778
  0.008693  0.015057  0.000000      0.002778
  0.009483  0.016425  0.000000      0.002778
  0.010273  0.017794  0.000000      0.002778
  0.011064  0.019163  0.000000      0.002778
  0.011854  0.020532  0.000000      0.002778
  0.012644  0.021900  0.000000      0.002778
  0.013434  0.023269  0.000000      0.002778
  0.014225  0.024638  0.000000      0.002778
  0.015015  0.026007  0.000000      0.002778
  0.015805  0.027375  0.000000      0.002778
  0.016595  0.028744  0.000000      0.002778
  0.017386  0.030113  0.000000      0.002778
  0.018176  0.031482  0.000000      0.002778
  0.018966  0.032851  0.000000      0.002778
  0.019757  0.034219  0.000000      0.002778
  0.020547  0.035588  0.000000      0.002778
  0.021337  0.036957  0.000000      0.002778
  0.022127  0.038326  0.000000      0.002778
  0.022918  0.039694  0.000000      0.002778
  0.023708  0.041063  0.000000      0.002778
  0.024498  0.042432  0.000000      0.002778
  0.025288  0.043801  0.000000      0.002778
  0.026079  0.045170  0.000000      0.002778
  0.026869  0.046538  0.000000      0.002778
  0.027659  0.047907  0.000000      0.002778
  0.028449  0.049276  0.000000      0.002778
  0.029240  0.050645  0.000000      0.002778
  0.030030  0.052013  0.000000      0.002778
  0.030820  0.053382  0.000000      0.002778
  0.031610  0.054751  0.000000      0.002778
  0.032401  0.056120  0.000000      0.002778
  0.033191  0.057488  0.000000      0.002778
  0.033981  0.058857  0.000000      0.002778
  0.034772  0.060226  0.000000      0.002778
  0.035562  0.061595  0.000000      0.002778
  0.036352  0.062964  0.000000      0.002778
  0.037142  0.064332  0.000000      0.002778
  0.037933  0.065701  0.000000      0.002778
  0.038723  0.067070  0.000000      0.002778
  0.039513  0.068439  0.000000      0.002778
  0.040303  0.069807  0.000000      0.002778
  0.041094  0.071176  0.000000      0.002778
  0.041884  0.072545  0.000000      0.002778
  0.042674  0.073914  0.000000      0.002778
  0.043464  0.075283  0.000000      0.002778
  0.044255  0.076651  0.000000      0.002778
  0.045045  0.078020  0.000000      0.002778
  0.045835  0.079389  0.000000      0.002778
  0.046625  0.080758  0.000000      0.002778
  0.047416  0.082126  0.000000      0.002778
  0.048206  0.083495  0.000000      0.002778
  0.048996  0.084864  0.000000      0.002778
  0.049786  0.086233  0.000000      0.002778
  0.050577  0.087601  0.000000      0.002778
  0.051367  0.088970  0.000000      0.002778
  0.052157  0.090339  0.000000      0.002778
  0.052948  0.091708  0.000000      0.002778
  0.053738  0.093077  0.000000      0.002778
  0.054528  0.094445  0.000000      0.002778
  0.055318  0.095814  0.000000      0.002778
  0.056109  0.097183  0.000000      0.002778
  0.056899  0.098552  0.000000      0.002778
  0.057689  0.099920  0.000000      0.002778
  0.058479  0.101289  0.000000      0.002778
  0.059270  0.102658  0.000000      0.002778
  0.060060  0.104027  0.000000      0.002778
  0.060850  0.105396  0.000000      0.002778
  0.061640  0.106764  0.000000      0.002778
  0.062431  0.108133  0.000000      0.002778
  0.063221  0.109502  0.000000      0.002778
  0.064011  0.110871  0.000000      0.002778
  0.064801  0.112239  0.000000      0.002778
  0.065592  0.113608  0.000000      0.002778
  0.066382  0.114977  0.000000      0.002778
  0.067172  0.116346  0.000000      0.002778
  0.067962  0.117714  0.000000      0.002778
  0.068753  0.119083  0.000000      0.002778
  0.069543  0.120452  0.000000      0.002778
  0.070333  0.121821  0.000000      0.002778
  0.071124  0.123190  0.000000      0.002778
  0.071914  0.124558  0.000000      0.002778
  0.072704  0.125927  0.000000      0.002778
  0.073494  0.127296  0.000000      0.002778
  0.074285  0.128665  0.000000      0.002778
  0.075075  0.130033  0.000000      0.002778
  0.075865  0.131402  0.000000      0.002778
  0.076655  0.132771  0.000000      0.002778
  0.077446  0.134140  0.000000      0.002778
  0.078236  0.135509  0.000000      0.002778
  0.079026  0.136877  0.000000      0.002778
  0.079816  0.138246  0.000000      0.002778
  0.080607  0.139615  0.000000      0.002778
  0.081397  0.140984  0.000000      0.002778
  0.082187  0.142352  0.000000      0.002778
  0.082977  0.143721  0.000000      0.002778
  0.083768  0.145090  0.000000      0.002778
  0.084558  0.146459  0.000000      0.002778
  0.085348  0.147827  0.000000      0.002778
  0.086138  0.149196  0.000000      0.002778
  0.086929  0.150565  0.000000      0.002778
  0.087719  0.151934  0.000000      0.002778
  0.088509  0.153303  0.000000      0.002778
  0.089300  0.154671  0.000000      0.002778
  0.090090  0.156040  0.000000      0.002778
  0.090880  0.157409  0.000000      0.002778
  0.091670  0.158778  0.000000      0.002778
  0.092461  0.160146  0.000000      0.002778
  0.093251  0.161515  0.000000      0.002778
  0.094041  0.162884  0.000000      0.002778
  0.094041  0.162884  0.000000      0.002778
  0.094436  0.162200  0.000000      0.002778
  0.094831  0.161515  0.000000      0.002778
  0.095227  0.160831  0.000000      0.002778
  0.095622  0.160146  0.000000      0.002778
  0.096017  0.159462  0.000000      0.002778
  0.096412  0.158778  0.000000      0.002778
  0.096807  0.158093  0.000000      0.002778
  0.097202  0.157409  0.000000      0.002778
  0.097597  0.156725  0.000000      0.002778
  0.097992  0.156040  0.000000      0.002778
  0.098388  0.155356  0.000000      0.002778
  0.098783  0.154671  0.000000      0.002778
  0.099178  0.153987  0.000000      0.002778
  0.099573  0.153303  0.000000      0.002778
  0.099968  0.152618  0.000000      0.002778
  0.100363  0.151934  0.000000      0.002778
  0.100758  0.151249  0.000000      0.002778
  0.101153  0.150565  0.000000      0.002778
  0.101549  0.149881  0.000000      0.002778
  0.101944  0.149196  0.000000      0.002778
  0.102339  0.148512  0.000000      0.002778
  0.102734  0.147827  0.000000      0.002778
  0.103129  0.147143  0.000000      0.002778
  0.103524  0.146459  0.000000      0.002778
  0.103919  0.145774  0.000000      0.002778
  0.104315  0.145090  0.000000      0.002778
  0.104710  0.144406  0.000000      0.002778
  0.105105  0.143721  0.000000      0.002778
  0.105500  0.143037  0.000000      0.002778
  0.105895  0.142352  0.000000      0.002778
  0.106290  0.141668  0.000000      0.002778
  0.106685  0.140984  0.000000      0.002778
  0.107080  0.140299  0.000000      0.002778
  0.107476  0.139615  0.000000      0.002778
  0.107871  0.138930  0.000000      0.002778
  0.108266  0.138246  0.000000      0.002778
  0.108661  0.137562  0.000000      0.002778
  0.109056  0.136877  0.000000      0.002778
  0.109451  0.136193  0.000000      0.002778
  0.109846  0.135509  0.000000      0.002778
  0.110241  0.134824  0.000000      0.002778
  0.110637  0.134140  0.000000      0.002778
  0.111032  0.133455  0.000000      0.002778
  0.111427  0.132771  0.000000      0.002778
  0.111822  0.132087  0.000000      0.002778
  0.112217  0.131402  0.000000      0.002778
  0.112612  0.130718  0.000000      0.002778
  0.113007  0.130033  0.000000      0.002778
  0.113403  0.129349  0.000000      0.002778
  0.113798  0.128665  0.000000      0.002778
  0.114193  0.127980  0.000000      0.002778
  0.114588  0.127296  0.000000      0.002778
  0.114983  0.126611  0.000000      0.002778
  0.115378  0.125927  0.000000      0.002778
  0.115773  0.125243  0.000000      0.002778
  0.116168  0.124558  0.000000      0.002778
  0.116564  0.123874  0.000000      0.002778
  0.116959  0.123190  0.000000      0.002778
  0.117354  0.122505  0.000000      0.002778
  0.117749  0.121821  0.000000      0.002778
  0.118144  0.121136  0.000000      0.002778
  0.118539  0.120452  0.000000      0.002778
  0.118934  0.119768  0.000000      0.002778
  0.119329  0.119083  0.000000      0.002778
  0.119725  0.118399  0.000000      0.002778
  0.120120  0.117714  0.000000      0.002778
  0.120515  0.117030  0.000000      0.002778
  0.120910  0.116346  0.000000      0.002778
  0.121305  0.115661  0.000000      0.002778
  0.121700  0.114977  0.000000      0.002778
  0.122095  0.114293  0.000000      0.002778
  0.122491  0.113608  0.000000      0.002778
  0.122886  0.112924  0.000000      0.002778
  0.123281  0.112239  0.000000      0.002778
  0.123676  0.111555  0.000000      0.002778
  0.124071  0.110871  0.000000      0.002778
  0.124466  0.110186  0.000000      0.002778
  0.124861  0.109502  0.000000      0.002778
  0.125256  0.108817  0.000000      0.002778
  0.125652  0.108133  0.000000      0.002778
  0.126047  0.107449  0.000000      0.002778
  0.126442  0.106764  0.000000      0.002778
  0.126837  0.106080  0.000000      0.002778
  0.127232  0.105396  0.000000      0.002778
  0.127627  0.104711  0.000000      0.002778
  0.128022  0.104027  0.000000      0.002778
  0.128417  0.103342  0.000000      0.002778
  0.128813  0.102658  0.000000      0.002778
  0.129208  0.101974  0.000000      0.002778
  0.129603  0.101289  0.000000      0.002778
  0.129998  0.100605  0.000000      0.002778
  0.130393  0.099920  0.000000      0.002778
  0.130788  0.099236  0.000000      0.002778
  0.131183  0.098552  0.000000      0.002778
  0.131579  0.097867  0.000000      0.002778
  0.131974  0.097183  0.000000      0.002778
  0.132369  0.096498  0.000000      0.002778
  0.132764  0.095814  0.000000      0.002778
  0.133159  0.095130  0.000000      0.002778
  0.133554  0.094445  0.000000      0.002778
  0.133949  0.093761  0.000000      0.002778
  0.134344  0.093077  0.000000      0.002778
  0.134740  0.092392  0.000000      0.002778
  0.135135  0.091708  0.000000      0.002778
  0.135530  0.091023  0.000000      0.002778
  0.135925  0.090339  0.000000      0.002778
  0.136320  0.089655  0.000000      0.002778
  0.136715  0.088970  0.000000      0.002778
  0.137110  0.088286  0.000000      0.002778
  0.137505  0.087601  0.000000      0.002778
  0.137901  0.086917  0.000000      0.002778
  0.138296  0.086233  0.000000      0.002778
  0.138691  0.085548  0.000000      0.002778
  0.139086  0.084864  0.000000      0.002778
  0.139481  0.084180  0.000000      0.002778
  0.139876  0.083495  0.000000      0.002778
  0.140271  0.082811  0.000000      0.002778
  0.140667  0.082126  0.000000      0.002778
  0.141062  0.081442  0.000000      0.002778
  0.141062  0.081442  0.000000      0.002778
  0.139876  0.080758  0.000000      0.002778
  0.138691  0.080073  0.000000      0.002778
  0.137505  0.079389  0.000000      0.002778
  0.136320  0.078704  0.000000      0.002778
  0.135135  0.078020  0.000000      0.002778
  0.133949  0.077336  0.000000      0.002778
  0.132764  0.076651  0.000000      0.002778
  0.131579  0.075967  0.000000      0.002778
  0.130393  0.075283  0.000000      0.002778
  0.129208  0.074598  0.000000      0.002778
  0.128022  0.073914  0.000000      0.002778
  0.126837  0.073229  0.000000      0.002778
  0.125652  0.072545  0.000000      0.002778
  0.124466  0.071861  0.000000      0.002778
  0.123281  0.071176  0.000000      0.002778
  0.122095  0.070492  0.000000      0.002778
  0.120910  0.069807  0.000000      0.002778
  0.119725  0.069123  0.000000      0.002778
  0.118539  0.068439  0.000000      0.002778
  0.117354  0.067754  0.000000      0.002778
  0.116168  0.067070  0.000000      0.002778
  0.114983  0.066385  0.000000      0.002778
  0.113798  0.065701  0.000000      0.002778
  0.112612  0.065017  0.000000      0.002778
  0.111427  0.064332  0.000000      0.002778
  0.110241  0.063648  0.000000      0.002778
  0.109056  0.062964  0.000000      0.002778
  0.107871  0.062279  0.000000      0.002778
  0.106685  0.061595  0.000000      0.002778
  0.105500  0.060910  0.000000      0.002778
  0.104315  0.060226  0.000000      0.002778
  0.103129  0.059542  0.000000      0.002778
  0.101944  0.058857  0.000000      0.002778
  0.100758  0.058173  0.000000      0.002778
  0.099573  0.057488  0.000000      0.002778
  0.098388  0.056804  0.000000      0.002778
  0.097202  0.056120  0.000000      0.002778
  0.096017  0.055435  0.000000      0.002778
  0.094831  0.054751  0.000000      0.002778
  0.093646  0.054067  0.000000      0.002778
  0.092461  0.053382  0.000000      0.002778
  0.091275  0.052698  0.000000      0.002778
  0.090090  0.052013  0.000000      0.002778
  0.088904  0.051329  0.000000      0.002778
  0.087719  0.050645  0.000000      0.002778
  0.086534  0.049960  0.000000      0.002778
  0.085348  0.049276  0.000000      0.002778
  0.084163  0.048591  0.000000      0.002778
  0.082977  0.047907  0.000000      0.002778
  0.081792  0.047223  0.000000      0.002778
  0.080607  0.046538  0.000000      0.002778
  0.079421  0.045854  0.000000      0.002778
  0.078236  0.045170  0.000000      0.002778
  0.077050  0.044485  0.000000      0.002778
  0.075865  0.043801  0.000000      0.002778
  0.074680  0.043116  0.000000      0.002778
  0.073494  0.042432  0.000000      0.002778
  0.072309  0.041748  0.000000      0.002778
  0.071124  0.041063  0.000000      0.002778
  0.069938  0.040379  0.000000      0.002778
  0.068753  0.039694  0.000000      0.002778
  0.067567  0.039010  0.000000      0.002778
  0.066382  0.038326  0.000000      0.002778
  0.065197  0.037641  0.000000      0.002778
  0.064011  0.036957  0.000000      0.002778
  0.062826  0.036272  0.000000      0.002778
  0.061640  0.035588  0.000000      0.002778
  0.060455  0.034904  0.000000      0.002778
  0.059270  0.034219  0.000000      0.002778
  0.058084  0.033535  0.000000      0.002778
  0.056899  0.032851  0.000000      0.002778
  0.055713  0.032166  0.000000      0.002778
  0.054528  0.031482  0.000000      0.002778
  0.053343  0.030797  0.000000      0.002778
  0.052157  0.030113  0.000000      0.002778
  0.050972  0.029429  0.000000      0.002778
  0.049786  0.028744  0.000000      0.002778
  0.048601  0.028060  0.000000      0.002778
  0.047416  0.027375  0.000000      0.002778
  0.046230  0.026691  0.000000      0.002778
  0.045045  0.026007  0.000000      0.002778
  0.043860  0.025322  0.000000      0.002778
  0.042674  0.024638  0.000000      0.002778
  0.041489  0.023954  0.000000      0.002778
  0.040303  0.023269  0.000000      0.002778
  0.039118  0.022585  0.000000      0.002778
  0.037933  0.021900  0.000000      0.002778
  0.036747  0.021216  0.000000      0.002778
  0.035562  0.020532  0.000000      0.002778
  0.034376  0.019847  0.000000      0.002778
  0.033191  0.019163  0.000000      0.002778
  0.032006  0.018478  0.000000      0.002778
  0.030820  0.017794  0.000000      0.002778
  0.029635  0.017110  0.000000      0.002778
  0.028449  0.016425  0.000000      0.002778
  0.027264  0.015741  0.000000      0.002778
  0.026079  0.015057  0.000000      0.002778
  0.024893  0.014372  0.000000      0.002778
  0.023708  0.013688  0.000000      0.002778
  0.022522  0.013003  0.000000      0.002778
  0.021337  0.012319  0.000000      0.002778
  0.020152  0.011635  0.000000      0.002778
  0.018966  0.010950  0.000000      0.002778
  0.017781  0.010266  0.000000      0.002778
  0.016595  0.009581  0.000000      0.002778
  0.015410  0.008897  0.000000      0.002778
  0.014225  0.008213  0.000000      0.002778
  0.013039  0.007528  0.000000      0.002778
  0.011854  0.006844  0.000000      0.002778
  0.010669  0.006159  0.000000      0.002778
  0.009483  0.005475  0.000000      0.002778
  0.008298  0.004791  0.000000      0.002778
  0.007112  0.004106  0.000000      0.002778
  0.005927  0.003422  0.000000      0.002778
  0.004742  0.002738  0.000000      0.002778
  0.003556  0.002053  0.000000      0.002778
  0.002371  0.001369  0.000000      0.002778
  0.001185  0.000684  0.000000      0.002778
  0.000000  0.000000  0.000000      0.002778



--------------------------------------------------------------------------------------------------------




 Dimension of arrays:
   k-points           NKPTS =    360   k-points in BZ     NKDIM =    360   number of bands    NBANDS=     16
   number of dos      NEDOS =    301   number of ions     NIONS =      3
   non local maximal  LDIM  =      6   non local SUM 2l+1 LMDIM =     18
   total plane-waves  NPLWV = 127008
   max r-space proj   IRMAX =      1   max aug-charges    IRDMAX=  35016
   dimension x,y,z NGX =    28 NGY =   28 NGZ =  162
   dimension x,y,z NGXF=    56 NGYF=   56 NGZF=  324
   support grid    NGXF=    56 NGYF=   56 NGZF=  324
   ions per type =               1   2
   NGX,Y,Z   is equivalent  to a cutoff of  13.13, 13.13, 13.26 a.u.
   NGXF,Y,Z  is equivalent  to a cutoff of  26.27, 26.27, 26.53 a.u.

 SYSTEM =  PtS2                                    
 POSCAR =  PtS                                     

 Startparameter for this run:
   NWRITE =      2    write-flag & timer
   PREC   = accura    normal or accurate (medium, high low for compatibility)
   ISTART =      0    job   : 0-new  1-cont  2-samecut
   ICHARG =     11    charge: 1-file 2-atom 10-const
   ISPIN  =      1    spin polarized calculation?
   LNONCOLLINEAR =      F non collinear calculations
   LSORBIT =      F    spin-orbit coupling
   INIWAV =      1    electr: 0-lowe 1-rand  2-diag
   LASPH  =      T    aspherical Exc in radial PAW
 Electronic Relaxation 1
   ENCUT  =  600.0 eV  44.10 Ry    6.64 a.u.   7.08  7.08 40.55*2*pi/ulx,y,z
   ENINI  =  600.0     initial cutoff
   ENAUG  =  359.0 eV  augmentation charge cutoff
   NELM   =    100;   NELMIN=  5; NELMDL=  0     # of ELM steps 
   EDIFF  = 0.1E-07   stopping-criterion for ELM
   LREAL  =      F    real-space projection
   NLSPLINE    = F    spline interpolate recip. space projectors
   LCOMPAT=      F    compatible to vasp.4.4
   GGA_COMPAT  = T    GGA compatible to vasp.4.4-vasp.4.6
   LMAXPAW     = -100 max onsite density
   LMAXMIX     =    4 max onsite mixed and CHGCAR
   VOSKOWN=      0    Vosko Wilk Nusair interpolation
   ROPT   =    0.00000   0.00000
 Ionic relaxation
   EDIFFG = 0.1E-06   stopping-criterion for IOM
   NSW    =      0    number of steps for IOM
   NBLOCK =      1;   KBLOCK =      1    inner block; outer block 
   IBRION =     -1    ionic relax: 0-MD 1-quasi-New 2-CG
   NFREE  =      0    steps in history (QN), initial steepest desc. (CG)
   ISIF   =      2    stress and relaxation
   IWAVPR =     10    prediction:  0-non 1-charg 2-wave 3-comb
   ISYM   =      2    0-nonsym 1-usesym 2-fastsym
   LCORR  =      T    Harris-Foulkes like correction to forces

   POTIM  = 0.5000    time-step for ionic-motion
   TEIN   =    0.0    initial temperature
   TEBEG  =    0.0;   TEEND  =   0.0 temperature during run
   SMASS  =  -3.00    Nose mass-parameter (am)
   estimated Nose-frequenzy (Omega)   =  0.10E-29 period in steps = 0.13E+47 mass=  -0.287E-27a.u.
   SCALEE = 1.0000    scale energy and forces
   NPACO  =    256;   APACO  = 10.0  distance and # of slots for P.C.
   PSTRESS=    0.0 pullay stress

  Mass of Ions in am
   POMASS = 195.08 32.07
  Ionic Valenz
   ZVAL   =  10.00  6.00
  Atomic Wigner-Seitz radii
   RWIGS  =  -1.00 -1.00
  virtual crystal weights 
   VCA    =   1.00  1.00
   NELECT =      22.0000    total number of electrons
   NUPDOWN=      -1.0000    fix difference up-down

 DOS related values:
   EMIN   =  10.00;   EMAX   =-10.00  energy-range for DOS
   EFERMI =   0.00;   METHOD = LEGACY      
   ISMEAR =     0;   SIGMA  =   0.05  broadening in eV -4-tet -1-fermi 0-gaus

 Electronic relaxation 2 (details)
   IALGO  =     38    algorithm
   LDIAG  =      T    sub-space diagonalisation (order eigenvalues)
   LSUBROT=      F    optimize rotation matrix (better conditioning)
   TURBO    =      0    0=normal 1=particle mesh
   IRESTART =      0    0=no restart 2=restart with 2 vectors
   NREBOOT  =      0    no. of reboots
   NMIN     =      0    reboot dimension
   EREF     =   0.00    reference energy to select bands
   IMIX   =      4    mixing-type and parameters
     AMIX     =   0.40;   BMIX     =  1.00
     AMIX_MAG =   1.60;   BMIX_MAG =  1.00
     AMIN     =   0.10
     WC   =   100.;   INIMIX=   1;  MIXPRE=   1;  MAXMIX= -45

 Intra band minimization:
   WEIMIN = 0.0000     energy-eigenvalue tresh-hold
   EBREAK =  0.16E-09  absolut break condition
   DEPER  =   0.30     relativ break condition  

   TIME   =   0.40     timestep for ELM

  volume/ion in A,a.u.               =      73.64       496.95
  Fermi-wavevector in a.u.,A,eV,Ry     =   0.758817  1.433957  7.834284  0.575804
  Thomas-Fermi vector in A             =   1.857473

 Write flags
   LWAVE        =      F    write WAVECAR
   LDOWNSAMPLE  =      F    k-point downsampling of WAVECAR
   LCHARG       =      T    write CHGCAR
   LVTOT        =      F    write LOCPOT, total local potential
   LVHAR        =      F    write LOCPOT, Hartree potential only
   LELF         =      F    write electronic localiz. function (ELF)
   LORBIT       =     11    0 simple, 1 ext, 2 COOP (PROOUT), +10 PAW based schemes


 Dipole corrections
   LMONO  =      F    monopole corrections only (constant potential shift)
   LDIPOL =      F    correct potential (dipole corrections)
   IDIPOL =      0    1-x, 2-y, 3-z, 4-all directions 
   EPSILON=  1.0000000 bulk dielectric constant

 LDA+U is selected, type is set to LDAUTYPE =  2
   angular momentum for each species LDAUL =     2   -1
   U (eV)           for each species LDAUU =   3.0  0.0
   J (eV)           for each species LDAUJ =   0.0  0.0
 Exchange correlation treatment:
   GGA     =    --    GGA type
   LEXCH   =     8    internal setting for exchange type
   LIBXC   =     F    Libxc                    
   VOSKOWN =     0    Vosko Wilk Nusair interpolation
   LHFCALC =     F    Hartree Fock is set to
   LHFONE  =     F    Hartree Fock one center treatment
   AEXX    =    0.0000 exact exchange contribution

 Linear response parameters
   LEPSILON=     F    determine dielectric tensor
   LRPA    =     F    only Hartree local field effects (RPA)
   LNABLA  =     F    use nabla operator in PAW spheres
   LVEL    =     F    velocity operator in full k-point grid
   CSHIFT  =0.1000    complex shift for real part using Kramers Kronig
   OMEGAMAX=  -1.0    maximum frequency
   DEG_THRESHOLD= 0.2000000E-02 threshold for treating states as degnerate
   RTIME   =   -0.100 relaxation time in fs
  (WPLASMAI=    0.000 imaginary part of plasma frequency in eV, 0.658/RTIME)
   DFIELD  = 0.0000000 0.0000000 0.0000000 field for delta impulse in time

  Optional k-point grid parameters
   LKPOINTS_OPT  =     F    use optional k-point grid
   KPOINTS_OPT_MODE=     1    mode for optional k-point grid

 Orbital magnetization related:
   ORBITALMAG=     F  switch on orbital magnetization
   LCHIMAG   =     F  perturbation theory with respect to B field
   DQ        =  0.001000  dq finite difference perturbation B field
   LLRAUG    =     F  two centre corrections for induced B field
   LBONE     =     F  B-component reconstruction in AE one-centre
   LVGVCALC  =     T  calculate vGv susceptibility
   LVGVAPPL  =     F  apply vGv susceptibility instead of pGv for G=0

 Random number generation:
   RANDOM_GENERATOR = DEFAULT
   PCG_SEED         = not used


--------------------------------------------------------------------------------------------------------


 Static calculation
 charge density and potential remain constant during run
 non-spin polarized calculation
 Variant of blocked Davidson
 Davidson routine will perform the subspace rotation
 perform sub-space diagonalisation
    after iterative eigenvector-optimisation
 no mixing
 using additional bands            5
 reciprocal scheme for non local part
 use partial core corrections
 calculate Harris-corrections to forces   (improved forces if not selfconsistent)
 use gradient corrections 
 WARNING: stress and forces are not correct
  (second derivative of E(xc) not defined)
 use of overlap-Matrix (Vanderbilt PP)
 Gauss-broadening in eV      SIGMA  =   0.05


--------------------------------------------------------------------------------------------------------


  energy-cutoff  :      600.00
  volume of cell :      220.92
      direct lattice vectors                 reciprocal lattice vectors
     3.544549068  0.000000000  0.000000000     0.282123334  0.162883983 -0.000000000
    -1.772274534  3.069669538  0.000000000     0.000000000  0.325767965  0.000000000
     0.000000000  0.000000000 20.304065131     0.000000000 -0.000000000  0.049251221

  length of vectors
     3.544549068  3.544549068 20.304065131     0.325767965  0.325767965  0.049251221



 k-points in units of 2pi/SCALE and weight: HEX (hexagonal) G-M-K-G                 
   0.00000000  0.00000000  0.00000000       0.003
   0.00079026  0.00136877  0.00000000       0.003
   0.00158052  0.00273755  0.00000000       0.003
   0.00237078  0.00410632  0.00000000       0.003
   0.00316105  0.00547509  0.00000000       0.003
   0.00395131  0.00684386  0.00000000       0.003
   0.00474157  0.00821264  0.00000000       0.003
   0.00553183  0.00958141  0.00000000       0.003
   0.00632209  0.01095018  0.00000000       0.003
   0.00711235  0.01231896  0.00000000       0.003
   0.00790261  0.01368773  0.00000000       0.003
   0.00869288  0.01505650  0.00000000       0.003
   0.00948314  0.01642528  0.00000000       0.003
   0.01027340  0.01779405  0.00000000       0.003
   0.01106366  0.01916282  0.00000000       0.003
   0.01185392  0.02053159  0.00000000       0.003
   0.01264418  0.02190037  0.00000000       0.003
   0.01343444  0.02326914  0.00000000       0.003
   0.01422471  0.02463791  0.00000000       0.003
   0.01501497  0.02600669  0.00000000       0.003
   0.01580523  0.02737546  0.00000000       0.003
   0.01659549  0.02874423  0.00000000       0.003
   0.01738575  0.03011300  0.00000000       0.003
   0.01817601  0.03148178  0.00000000       0.003
   0.01896627  0.03285055  0.00000000       0.003
   0.01975654  0.03421932  0.00000000       0.003
   0.02054680  0.03558810  0.00000000       0.003
   0.02133706  0.03695687  0.00000000       0.003
   0.02212732  0.03832564  0.00000000       0.003
   0.02291758  0.03969442  0.00000000       0.003
   0.02370784  0.04106319  0.00000000       0.003
   0.02449810  0.04243196  0.00000000       0.003
   0.02528837  0.04380073  0.00000000       0.003
   0.02607863  0.04516951  0.00000000       0.003
   0.02686889  0.04653828  0.00000000       0.003
   0.02765915  0.04790705  0.00000000       0.003
   0.02844941  0.04927583  0.00000000       0.003
   0.02923967  0.05064460  0.00000000       0.003
   0.03002993  0.05201337  0.00000000       0.003
   0.03082020  0.05338215  0.00000000       0.003
   0.03161046  0.05475092  0.00000000       0.003
   0.03240072  0.05611969  0.00000000       0.003
   0.03319098  0.05748846  0.00000000       0.003
   0.03398124  0.05885724  0.00000000       0.003
   0.03477150  0.06022601  0.00000000       0.003
   0.03556176  0.06159478  0.00000000       0.003
   0.03635203  0.06296356  0.00000000       0.003
   0.03714229  0.06433233  0.00000000       0.003
   0.03793255  0.06570110  0.00000000       0.003
   0.03872281  0.06706987  0.00000000       0.003
   0.03951307  0.06843865  0.00000000       0.003
   0.04030333  0.06980742  0.00000000       0.003
   0.04109359  0.07117619  0.00000000       0.003
   0.04188386  0.07254497  0.00000000       0.003
   0.04267412  0.07391374  0.00000000       0.003
   0.04346438  0.07528251  0.00000000       0.003
   0.04425464  0.07665129  0.00000000       0.003
   0.04504490  0.07802006  0.00000000       0.003
   0.04583516  0.07938883  0.00000000       0.003
   0.04662542  0.08075760  0.00000000       0.003
   0.04741569  0.08212638  0.00000000       0.003
   0.04820595  0.08349515  0.00000000       0.003
   0.04899621  0.08486392  0.00000000       0.003
   0.04978647  0.08623270  0.00000000       0.003
   0.05057673  0.08760147  0.00000000       0.003
   0.05136699  0.08897024  0.00000000       0.003
   0.05215725  0.09033901  0.00000000       0.003
   0.05294752  0.09170779  0.00000000       0.003
   0.05373778  0.09307656  0.00000000       0.003
   0.05452804  0.09444533  0.00000000       0.003
   0.05531830  0.09581411  0.00000000       0.003
   0.05610856  0.09718288  0.00000000       0.003
   0.05689882  0.09855165  0.00000000       0.003
   0.05768908  0.09992043  0.00000000       0.003
   0.05847935  0.10128920  0.00000000       0.003
   0.05926961  0.10265797  0.00000000       0.003
   0.06005987  0.10402674  0.00000000       0.003
   0.06085013  0.10539552  0.00000000       0.003
   0.06164039  0.10676429  0.00000000       0.003
   0.06243065  0.10813306  0.00000000       0.003
   0.06322091  0.10950184  0.00000000       0.003
   0.06401118  0.11087061  0.00000000       0.003
   0.06480144  0.11223938  0.00000000       0.003
   0.06559170  0.11360815  0.00000000       0.003
   0.06638196  0.11497693  0.00000000       0.003
   0.06717222  0.11634570  0.00000000       0.003
   0.06796248  0.11771447  0.00000000       0.003
   0.06875274  0.11908325  0.00000000       0.003
   0.06954301  0.12045202  0.00000000       0.003
   0.07033327  0.12182079  0.00000000       0.003
   0.07112353  0.12318957  0.00000000       0.003
   0.07191379  0.12455834  0.00000000       0.003
   0.07270405  0.12592711  0.00000000       0.003
   0.07349431  0.12729588  0.00000000       0.003
   0.07428457  0.12866466  0.00000000       0.003
   0.07507484  0.13003343  0.00000000       0.003
   0.07586510  0.13140220  0.00000000       0.003
   0.07665536  0.13277098  0.00000000       0.003
   0.07744562  0.13413975  0.00000000       0.003
   0.07823588  0.13550852  0.00000000       0.003
   0.07902614  0.13687730  0.00000000       0.003
   0.07981640  0.13824607  0.00000000       0.003
   0.08060667  0.13961484  0.00000000       0.003
   0.08139693  0.14098361  0.00000000       0.003
   0.08218719  0.14235239  0.00000000       0.003
   0.08297745  0.14372116  0.00000000       0.003
   0.08376771  0.14508993  0.00000000       0.003
   0.08455797  0.14645871  0.00000000       0.003
   0.08534823  0.14782748  0.00000000       0.003
   0.08613850  0.14919625  0.00000000       0.003
   0.08692876  0.15056502  0.00000000       0.003
   0.08771902  0.15193380  0.00000000       0.003
   0.08850928  0.15330257  0.00000000       0.003
   0.08929954  0.15467134  0.00000000       0.003
   0.09008980  0.15604012  0.00000000       0.003
   0.09088006  0.15740889  0.00000000       0.003
   0.09167033  0.15877766  0.00000000       0.003
   0.09246059  0.16014644  0.00000000       0.003
   0.09325085  0.16151521  0.00000000       0.003
   0.09404111  0.16288398  0.00000000       0.003
   0.09404111  0.16288398  0.00000000       0.003
   0.09443624  0.16219959  0.00000000       0.003
   0.09483137  0.16151521  0.00000000       0.003
   0.09522650  0.16083082  0.00000000       0.003
   0.09562163  0.16014644  0.00000000       0.003
   0.09601676  0.15946205  0.00000000       0.003
   0.09641189  0.15877766  0.00000000       0.003
   0.09680703  0.15809328  0.00000000       0.003
   0.09720216  0.15740889  0.00000000       0.003
   0.09759729  0.15672450  0.00000000       0.003
   0.09799242  0.15604012  0.00000000       0.003
   0.09838755  0.15535573  0.00000000       0.003
   0.09878268  0.15467134  0.00000000       0.003
   0.09917781  0.15398696  0.00000000       0.003
   0.09957294  0.15330257  0.00000000       0.003
   0.09996807  0.15261818  0.00000000       0.003
   0.10036320  0.15193380  0.00000000       0.003
   0.10075833  0.15124941  0.00000000       0.003
   0.10115346  0.15056502  0.00000000       0.003
   0.10154859  0.14988064  0.00000000       0.003
   0.10194372  0.14919625  0.00000000       0.003
   0.10233886  0.14851187  0.00000000       0.003
   0.10273399  0.14782748  0.00000000       0.003
   0.10312912  0.14714309  0.00000000       0.003
   0.10352425  0.14645871  0.00000000       0.003
   0.10391938  0.14577432  0.00000000       0.003
   0.10431451  0.14508993  0.00000000       0.003
   0.10470964  0.14440555  0.00000000       0.003
   0.10510477  0.14372116  0.00000000       0.003
   0.10549990  0.14303677  0.00000000       0.003
   0.10589503  0.14235239  0.00000000       0.003
   0.10629016  0.14166800  0.00000000       0.003
   0.10668529  0.14098361  0.00000000       0.003
   0.10708042  0.14029923  0.00000000       0.003
   0.10747556  0.13961484  0.00000000       0.003
   0.10787069  0.13893045  0.00000000       0.003
   0.10826582  0.13824607  0.00000000       0.003
   0.10866095  0.13756168  0.00000000       0.003
   0.10905608  0.13687730  0.00000000       0.003
   0.10945121  0.13619291  0.00000000       0.003
   0.10984634  0.13550852  0.00000000       0.003
   0.11024147  0.13482414  0.00000000       0.003
   0.11063660  0.13413975  0.00000000       0.003
   0.11103173  0.13345536  0.00000000       0.003
   0.11142686  0.13277098  0.00000000       0.003
   0.11182199  0.13208659  0.00000000       0.003
   0.11221712  0.13140220  0.00000000       0.003
   0.11261225  0.13071782  0.00000000       0.003
   0.11300739  0.13003343  0.00000000       0.003
   0.11340252  0.12934904  0.00000000       0.003
   0.11379765  0.12866466  0.00000000       0.003
   0.11419278  0.12798027  0.00000000       0.003
   0.11458791  0.12729588  0.00000000       0.003
   0.11498304  0.12661150  0.00000000       0.003
   0.11537817  0.12592711  0.00000000       0.003
   0.11577330  0.12524273  0.00000000       0.003
   0.11616843  0.12455834  0.00000000       0.003
   0.11656356  0.12387395  0.00000000       0.003
   0.11695869  0.12318957  0.00000000       0.003
   0.11735382  0.12250518  0.00000000       0.003
   0.11774895  0.12182079  0.00000000       0.003
   0.11814408  0.12113641  0.00000000       0.003
   0.11853922  0.12045202  0.00000000       0.003
   0.11893435  0.11976763  0.00000000       0.003
   0.11932948  0.11908325  0.00000000       0.003
   0.11972461  0.11839886  0.00000000       0.003
   0.12011974  0.11771447  0.00000000       0.003
   0.12051487  0.11703009  0.00000000       0.003
   0.12091000  0.11634570  0.00000000       0.003
   0.12130513  0.11566131  0.00000000       0.003
   0.12170026  0.11497693  0.00000000       0.003
   0.12209539  0.11429254  0.00000000       0.003
   0.12249052  0.11360816  0.00000000       0.003
   0.12288565  0.11292377  0.00000000       0.003
   0.12328078  0.11223938  0.00000000       0.003
   0.12367591  0.11155500  0.00000000       0.003
   0.12407105  0.11087061  0.00000000       0.003
   0.12446618  0.11018622  0.00000000       0.003
   0.12486131  0.10950184  0.00000000       0.003
   0.12525644  0.10881745  0.00000000       0.003
   0.12565157  0.10813306  0.00000000       0.003
   0.12604670  0.10744868  0.00000000       0.003
   0.12644183  0.10676429  0.00000000       0.003
   0.12683696  0.10607990  0.00000000       0.003
   0.12723209  0.10539552  0.00000000       0.003
   0.12762722  0.10471113  0.00000000       0.003
   0.12802235  0.10402674  0.00000000       0.003
   0.12841748  0.10334236  0.00000000       0.003
   0.12881261  0.10265797  0.00000000       0.003
   0.12920775  0.10197359  0.00000000       0.003
   0.12960288  0.10128920  0.00000000       0.003
   0.12999801  0.10060481  0.00000000       0.003
   0.13039314  0.09992043  0.00000000       0.003
   0.13078827  0.09923604  0.00000000       0.003
   0.13118340  0.09855165  0.00000000       0.003
   0.13157853  0.09786727  0.00000000       0.003
   0.13197366  0.09718288  0.00000000       0.003
   0.13236879  0.09649849  0.00000000       0.003
   0.13276392  0.09581411  0.00000000       0.003
   0.13315905  0.09512972  0.00000000       0.003
   0.13355418  0.09444533  0.00000000       0.003
   0.13394931  0.09376095  0.00000000       0.003
   0.13434444  0.09307656  0.00000000       0.003
   0.13473958  0.09239217  0.00000000       0.003
   0.13513471  0.09170779  0.00000000       0.003
   0.13552984  0.09102340  0.00000000       0.003
   0.13592497  0.09033902  0.00000000       0.003
   0.13632010  0.08965463  0.00000000       0.003
   0.13671523  0.08897024  0.00000000       0.003
   0.13711036  0.08828586  0.00000000       0.003
   0.13750549  0.08760147  0.00000000       0.003
   0.13790062  0.08691708  0.00000000       0.003
   0.13829575  0.08623270  0.00000000       0.003
   0.13869088  0.08554831  0.00000000       0.003
   0.13908601  0.08486392  0.00000000       0.003
   0.13948114  0.08417954  0.00000000       0.003
   0.13987627  0.08349515  0.00000000       0.003
   0.14027141  0.08281076  0.00000000       0.003
   0.14066654  0.08212638  0.00000000       0.003
   0.14106167  0.08144199  0.00000000       0.003
   0.14106167  0.08144199  0.00000000       0.003
   0.13987627  0.08075760  0.00000000       0.003
   0.13869088  0.08007322  0.00000000       0.003
   0.13750549  0.07938883  0.00000000       0.003
   0.13632010  0.07870445  0.00000000       0.003
   0.13513471  0.07802006  0.00000000       0.003
   0.13394931  0.07733567  0.00000000       0.003
   0.13276392  0.07665129  0.00000000       0.003
   0.13157853  0.07596690  0.00000000       0.003
   0.13039314  0.07528251  0.00000000       0.003
   0.12920775  0.07459813  0.00000000       0.003
   0.12802235  0.07391374  0.00000000       0.003
   0.12683696  0.07322935  0.00000000       0.003
   0.12565157  0.07254497  0.00000000       0.003
   0.12446618  0.07186058  0.00000000       0.003
   0.12328078  0.07117619  0.00000000       0.003
   0.12209539  0.07049181  0.00000000       0.003
   0.12091000  0.06980742  0.00000000       0.003
   0.11972461  0.06912303  0.00000000       0.003
   0.11853922  0.06843865  0.00000000       0.003
   0.11735382  0.06775426  0.00000000       0.003
   0.11616843  0.06706988  0.00000000       0.003
   0.11498304  0.06638549  0.00000000       0.003
   0.11379765  0.06570110  0.00000000       0.003
   0.11261226  0.06501672  0.00000000       0.003
   0.11142686  0.06433233  0.00000000       0.003
   0.11024147  0.06364794  0.00000000       0.003
   0.10905608  0.06296356  0.00000000       0.003
   0.10787069  0.06227917  0.00000000       0.003
   0.10668529  0.06159478  0.00000000       0.003
   0.10549990  0.06091040  0.00000000       0.003
   0.10431451  0.06022601  0.00000000       0.003
   0.10312912  0.05954162  0.00000000       0.003
   0.10194373  0.05885724  0.00000000       0.003
   0.10075833  0.05817285  0.00000000       0.003
   0.09957294  0.05748846  0.00000000       0.003
   0.09838755  0.05680408  0.00000000       0.003
   0.09720216  0.05611969  0.00000000       0.003
   0.09601676  0.05543531  0.00000000       0.003
   0.09483137  0.05475092  0.00000000       0.003
   0.09364598  0.05406653  0.00000000       0.003
   0.09246059  0.05338215  0.00000000       0.003
   0.09127520  0.05269776  0.00000000       0.003
   0.09008980  0.05201337  0.00000000       0.003
   0.08890441  0.05132899  0.00000000       0.003
   0.08771902  0.05064460  0.00000000       0.003
   0.08653363  0.04996021  0.00000000       0.003
   0.08534824  0.04927583  0.00000000       0.003
   0.08416284  0.04859144  0.00000000       0.003
   0.08297745  0.04790705  0.00000000       0.003
   0.08179206  0.04722267  0.00000000       0.003
   0.08060667  0.04653828  0.00000000       0.003
   0.07942127  0.04585389  0.00000000       0.003
   0.07823588  0.04516951  0.00000000       0.003
   0.07705049  0.04448512  0.00000000       0.003
   0.07586510  0.04380073  0.00000000       0.003
   0.07467971  0.04311635  0.00000000       0.003
   0.07349431  0.04243196  0.00000000       0.003
   0.07230892  0.04174758  0.00000000       0.003
   0.07112353  0.04106319  0.00000000       0.003
   0.06993814  0.04037880  0.00000000       0.003
   0.06875275  0.03969442  0.00000000       0.003
   0.06756735  0.03901003  0.00000000       0.003
   0.06638196  0.03832564  0.00000000       0.003
   0.06519657  0.03764126  0.00000000       0.003
   0.06401118  0.03695687  0.00000000       0.003
   0.06282578  0.03627248  0.00000000       0.003
   0.06164039  0.03558810  0.00000000       0.003
   0.06045500  0.03490371  0.00000000       0.003
   0.05926961  0.03421932  0.00000000       0.003
   0.05808422  0.03353494  0.00000000       0.003
   0.05689882  0.03285055  0.00000000       0.003
   0.05571343  0.03216616  0.00000000       0.003
   0.05452804  0.03148178  0.00000000       0.003
   0.05334265  0.03079739  0.00000000       0.003
   0.05215725  0.03011301  0.00000000       0.003
   0.05097186  0.02942862  0.00000000       0.003
   0.04978647  0.02874423  0.00000000       0.003
   0.04860108  0.02805985  0.00000000       0.003
   0.04741569  0.02737546  0.00000000       0.003
   0.04623029  0.02669107  0.00000000       0.003
   0.04504490  0.02600669  0.00000000       0.003
   0.04385951  0.02532230  0.00000000       0.003
   0.04267412  0.02463791  0.00000000       0.003
   0.04148873  0.02395353  0.00000000       0.003
   0.04030333  0.02326914  0.00000000       0.003
   0.03911794  0.02258475  0.00000000       0.003
   0.03793255  0.02190037  0.00000000       0.003
   0.03674716  0.02121598  0.00000000       0.003
   0.03556176  0.02053159  0.00000000       0.003
   0.03437637  0.01984721  0.00000000       0.003
   0.03319098  0.01916282  0.00000000       0.003
   0.03200559  0.01847844  0.00000000       0.003
   0.03082020  0.01779405  0.00000000       0.003
   0.02963480  0.01710966  0.00000000       0.003
   0.02844941  0.01642528  0.00000000       0.003
   0.02726402  0.01574089  0.00000000       0.003
   0.02607863  0.01505650  0.00000000       0.003
   0.02489324  0.01437212  0.00000000       0.003
   0.02370784  0.01368773  0.00000000       0.003
   0.02252245  0.01300334  0.00000000       0.003
   0.02133706  0.01231896  0.00000000       0.003
   0.02015167  0.01163457  0.00000000       0.003
   0.01896627  0.01095018  0.00000000       0.003
   0.01778088  0.01026580  0.00000000       0.003
   0.01659549  0.00958141  0.00000000       0.003
   0.01541010  0.00889702  0.00000000       0.003
   0.01422471  0.00821264  0.00000000       0.003
   0.01303931  0.00752825  0.00000000       0.003
   0.01185392  0.00684386  0.00000000       0.003
   0.01066853  0.00615948  0.00000000       0.003
   0.00948314  0.00547509  0.00000000       0.003
   0.00829775  0.00479071  0.00000000       0.003
   0.00711235  0.00410632  0.00000000       0.003
   0.00592696  0.00342193  0.00000000       0.003
   0.00474157  0.00273755  0.00000000       0.003
   0.00355618  0.00205316  0.00000000       0.003
   0.00237078  0.00136877  0.00000000       0.003
   0.00118539  0.00068439  0.00000000       0.003
   0.00000000  0.00000000  0.00000000       0.003

 k-points in reciprocal lattice and weights: HEX (hexagonal) G-M-K-G                 
   0.00000000  0.00000000  0.00000000       0.003
   0.00280112  0.00280112  0.00000000       0.003
   0.00560224  0.00560224  0.00000000       0.003
   0.00840336  0.00840336  0.00000000       0.003
   0.01120448  0.01120448  0.00000000       0.003
   0.01400560  0.01400560  0.00000000       0.003
   0.01680672  0.01680672  0.00000000       0.003
   0.01960784  0.01960784  0.00000000       0.003
   0.02240896  0.02240896  0.00000000       0.003
   0.02521008  0.02521008  0.00000000       0.003
   0.02801120  0.02801120  0.00000000       0.003
   0.03081232  0.03081232  0.00000000       0.003
   0.03361345  0.03361345  0.00000000       0.003
   0.03641457  0.03641457  0.00000000       0.003
   0.03921569  0.03921569  0.00000000       0.003
   0.04201681  0.04201681  0.00000000       0.003
   0.04481793  0.04481793  0.00000000       0.003
   0.04761905  0.04761905  0.00000000       0.003
   0.05042017  0.05042017  0.00000000       0.003
   0.05322129  0.05322129  0.00000000       0.003
   0.05602241  0.05602241  0.00000000       0.003
   0.05882353  0.05882353  0.00000000       0.003
   0.06162465  0.06162465  0.00000000       0.003
   0.06442577  0.06442577  0.00000000       0.003
   0.06722689  0.06722689  0.00000000       0.003
   0.07002801  0.07002801  0.00000000       0.003
   0.07282913  0.07282913  0.00000000       0.003
   0.07563025  0.07563025  0.00000000       0.003
   0.07843137  0.07843137  0.00000000       0.003
   0.08123249  0.08123249  0.00000000       0.003
   0.08403361  0.08403361  0.00000000       0.003
   0.08683473  0.08683473  0.00000000       0.003
   0.08963585  0.08963585  0.00000000       0.003
   0.09243697  0.09243697  0.00000000       0.003
   0.09523809  0.09523809  0.00000000       0.003
   0.09803921  0.09803921  0.00000000       0.003
   0.10084034  0.10084034  0.00000000       0.003
   0.10364146  0.10364146  0.00000000       0.003
   0.10644258  0.10644258  0.00000000       0.003
   0.10924370  0.10924370  0.00000000       0.003
   0.11204482  0.11204482  0.00000000       0.003
   0.11484594  0.11484594  0.00000000       0.003
   0.11764706  0.11764706  0.00000000       0.003
   0.12044818  0.12044818  0.00000000       0.003
   0.12324930  0.12324930  0.00000000       0.003
   0.12605042  0.12605042  0.00000000       0.003
   0.12885154  0.12885154  0.00000000       0.003
   0.13165266  0.13165266  0.00000000       0.003
   0.13445378  0.13445378  0.00000000       0.003
   0.13725490  0.13725490  0.00000000       0.003
   0.14005602  0.14005602  0.00000000       0.003
   0.14285714  0.14285714  0.00000000       0.003
   0.14565826  0.14565826  0.00000000       0.003
   0.14845938  0.14845938  0.00000000       0.003
   0.15126050  0.15126050  0.00000000       0.003
   0.15406162  0.15406162  0.00000000       0.003
   0.15686274  0.15686274  0.00000000       0.003
   0.15966386  0.15966386  0.00000000       0.003
   0.16246498  0.16246498  0.00000000       0.003
   0.16526610  0.16526610  0.00000000       0.003
   0.16806723  0.16806723  0.00000000       0.003
   0.17086835  0.17086835  0.00000000       0.003
   0.17366947  0.17366947  0.00000000       0.003
   0.17647059  0.17647059  0.00000000       0.003
   0.17927171  0.17927171  0.00000000       0.003
   0.18207283  0.18207283  0.00000000       0.003
   0.18487395  0.18487395  0.00000000       0.003
   0.18767507  0.18767507  0.00000000       0.003
   0.19047619  0.19047619  0.00000000       0.003
   0.19327731  0.19327731  0.00000000       0.003
   0.19607843  0.19607843  0.00000000       0.003
   0.19887955  0.19887955  0.00000000       0.003
   0.20168067  0.20168067  0.00000000       0.003
   0.20448179  0.20448179  0.00000000       0.003
   0.20728291  0.20728291  0.00000000       0.003
   0.21008403  0.21008403  0.00000000       0.003
   0.21288515  0.21288515  0.00000000       0.003
   0.21568627  0.21568627  0.00000000       0.003
   0.21848739  0.21848739  0.00000000       0.003
   0.22128851  0.22128851  0.00000000       0.003
   0.22408963  0.22408963  0.00000000       0.003
   0.22689075  0.22689075  0.00000000       0.003
   0.22969187  0.22969187  0.00000000       0.003
   0.23249299  0.23249299  0.00000000       0.003
   0.23529412  0.23529412  0.00000000       0.003
   0.23809524  0.23809524  0.00000000       0.003
[...]
      4      -9.0766      2.00000
      5      -8.9409      2.00000
      6      -6.9646      2.00000
      7      -6.9564      2.00000
      8      -4.6400      2.00000
      9      -3.9238      2.00000
     10      -3.5098      2.00000
     11      -3.5092      2.00000
     12      -0.3198      0.00000
     13      -0.1729      0.00000
     14       2.2205      0.00000
     15       2.5912      0.00000
     16       3.1946      0.00000

 k-point   348 :       0.0504    0.0000    0.0000
  band No.  band energies     occupation 
      1     -17.2817      2.00000
      2     -15.1135      2.00000
      3      -9.1034      2.00000
      4      -9.0808      2.00000
      5      -8.9460      2.00000
      6      -6.9594      2.00000
      7      -6.9526      2.00000
      8      -4.6227      2.00000
      9      -3.9321      2.00000
     10      -3.5103      2.00000
     11      -3.5100      2.00000
     12      -0.2925      0.00000
     13      -0.1658      0.00000
     14       2.2078      0.00000
     15       2.5815      0.00000
     16       3.1708      0.00000

 k-point   349 :       0.0462    0.0000    0.0000
  band No.  band energies     occupation 
      1     -17.2868      2.00000
      2     -15.1121      2.00000
      3      -9.1037      2.00000
      4      -9.0847      2.00000
      5      -8.9506      2.00000
      6      -6.9547      2.00000
      7      -6.9491      2.00000
      8      -4.6065      2.00000
      9      -3.9399      2.00000
     10      -3.5109      2.00000
     11      -3.5108      2.00000
     12      -0.2669      0.00000
     13      -0.1592      0.00000
     14       2.1960      0.00000
     15       2.5724      0.00000
     16       3.1481      0.00000

 k-point   350 :       0.0420    0.0000    0.0000
  band No.  band energies     occupation 
      1     -17.2915      2.00000
      2     -15.1108      2.00000
      3      -9.1040      2.00000
      4      -9.0883      2.00000
      5      -8.9549      2.00000
      6      -6.9503      2.00000
      7      -6.9458      2.00000
      8      -4.5916      2.00000
      9      -3.9471      2.00000
     10      -3.5116      2.00000
     11      -3.5116      2.00000
     12      -0.2430      0.00000
     13      -0.1531      0.00000
     14       2.1851      0.00000
     15       2.5638      0.00000
     16       3.1268      0.00000

 k-point   351 :       0.0378    0.0000    0.0000
  band No.  band energies     occupation 
      1     -17.2957      2.00000
      2     -15.1096      2.00000
      3      -9.1042      2.00000
      4      -9.0915      2.00000
      5      -8.9588      2.00000
      6      -6.9465      2.00000
      7      -6.9429      2.00000
      8      -4.5779      2.00000
      9      -3.9536      2.00000
     10      -3.5124      2.00000
     11      -3.5122      2.00000
     12      -0.2210      0.00000
     13      -0.1475      0.00000
     14       2.1752      0.00000
     15       2.5559      0.00000
     16       3.1081      0.00000

 k-point   352 :       0.0336    0.0000    0.0000
  band No.  band energies     occupation 
      1     -17.2995      2.00000
      2     -15.1085      2.00000
      3      -9.1045      2.00000
      4      -9.0944      2.00000
      5      -8.9623      2.00000
      6      -6.9430      2.00000
      7      -6.9402      2.00000
      8      -4.5655      2.00000
      9      -3.9595      2.00000
     10      -3.5131      2.00000
     11      -3.5129      2.00000
     12      -0.2010      0.00000
     13      -0.1424      0.00000
     14       2.1663      0.00000
     15       2.5486      0.00000
     16       3.0956      0.00000

 k-point   353 :       0.0294    0.0000    0.0000
  band No.  band energies     occupation 
      1     -17.3029      2.00000
      2     -15.1076      2.00000
      3      -9.1047      2.00000
      4      -9.0969      2.00000
      5      -8.9653      2.00000
      6      -6.9399      2.00000
      7      -6.9378      2.00000
      8      -4.5544      2.00000
      9      -3.9647      2.00000
     10      -3.5137      2.00000
     11      -3.5135      2.00000
     12      -0.1831      0.00000
     13      -0.1379      0.00000
     14       2.1584      0.00000
     15       2.5420      0.00000
     16       3.0739      0.00000

 k-point   354 :       0.0252    0.0000    0.0000
  band No.  band energies     occupation 
      1     -17.3058      2.00000
      2     -15.1068      2.00000
      3      -9.1048      2.00000
      4      -9.0991      2.00000
      5      -8.9679      2.00000
      6      -6.9373      2.00000
      7      -6.9357      2.00000
      8      -4.5447      2.00000
      9      -3.9692      2.00000
     10      -3.5143      2.00000
     11      -3.5141      2.00000
     12      -0.1674      0.00000
     13      -0.1339      0.00000
     14       2.1515      0.00000
     15       2.5362      0.00000
     16       3.0603      0.00000

 k-point   355 :       0.0210    0.0000    0.0000
  band No.  band energies     occupation 
      1     -17.3083      2.00000
      2     -15.1061      2.00000
      3      -9.1050      2.00000
      4      -9.1010      2.00000
      5      -8.9702      2.00000
      6      -6.9350      2.00000
      7      -6.9340      2.00000
      8      -4.5364      2.00000
      9      -3.9731      2.00000
     10      -3.5148      2.00000
     11      -3.5147      2.00000
     12      -0.1540      0.00000
     13      -0.1306      0.00000
     14       2.1456      0.00000
     15       2.5312      0.00000
     16       3.0491      0.00000

 k-point   356 :       0.0168    0.0000    0.0000
  band No.  band energies     occupation 
      1     -17.3103      2.00000
      2     -15.1055      2.00000
      3      -9.1051      2.00000
      4      -9.1026      2.00000
      5      -8.9720      2.00000
      6      -6.9332      2.00000
      7      -6.9325      2.00000
      8      -4.5296      2.00000
      9      -3.9762      2.00000
     10      -3.5152      2.00000
     11      -3.5151      2.00000
     12      -0.1428      0.00000
     13      -0.1278      0.00000
     14       2.1408      0.00000
     15       2.5270      0.00000
     16       3.0393      0.00000

 k-point   357 :       0.0126    0.0000    0.0000
  band No.  band energies     occupation 
      1     -17.3119      2.00000
      2     -15.1051      2.00000
      3      -9.1052      2.00000
      4      -9.1038      2.00000
      5      -8.9734      2.00000
      6      -6.9318      2.00000
      7      -6.9314      2.00000
      8      -4.5243      2.00000
      9      -3.9787      2.00000
     10      -3.5156      2.00000
     11      -3.5155      2.00000
     12      -0.1341      0.00000
     13      -0.1256      0.00000
     14       2.1370      0.00000
     15       2.5236      0.00000
     16       3.0320      0.00000

 k-point   358 :       0.0084    0.0000    0.0000
  band No.  band energies     occupation 
      1     -17.3130      2.00000
      2     -15.1047      2.00000
      3      -9.1052      2.00000
      4      -9.1046      2.00000
      5      -8.9745      2.00000
      6      -6.9308      2.00000
      7      -6.9306      2.00000
      8      -4.5205      2.00000
      9      -3.9805      2.00000
     10      -3.5158      2.00000
     11      -3.5158      2.00000
     12      -0.1279      0.00000
     13      -0.1241      0.00000
     14       2.1343      0.00000
     15       2.5213      0.00000
     16       3.0266      0.00000

 k-point   359 :       0.0042    0.0000    0.0000
  band No.  band energies     occupation 
      1     -17.3137      2.00000
      2     -15.1046      2.00000
      3      -9.1053      2.00000
      4      -9.1051      2.00000
      5      -8.9751      2.00000
      6      -6.9302      2.00000
      7      -6.9301      2.00000
      8      -4.5182      2.00000
      9      -3.9816      2.00000
     10      -3.5160      2.00000
     11      -3.5160      2.00000
     12      -0.1241      0.00000
     13      -0.1232      0.00000
     14       2.1327      0.00000
     15       2.5198      0.00000
     16       3.0234      0.00000

 k-point   360 :       0.0000    0.0000    0.0000
  band No.  band energies     occupation 
      1     -17.3139      2.00000
      2     -15.1045      2.00000
      3      -9.1053      2.00000
      4      -9.1053      2.00000
      5      -8.9753      2.00000
      6      -6.9300      2.00000
      7      -6.9299      2.00000
      8      -4.5174      2.00000
      9      -3.9819      2.00000
     10      -3.5160      2.00000
     11      -3.5160      2.00000
     12      -0.1228      0.00000
     13      -0.1228      0.00000
     14       2.1322      0.00000
     15       2.5193      0.00000
     16       3.0223      0.00000


--------------------------------------------------------------------------------------------------------


 soft charge-density along one line, spin component           1
         0         1         2         3         4         5         6         7         8         9
 total charge-density along one line

 pseudopotential strength for first ion, spin component:           1
 -8.736   0.000  -0.000   0.000  -0.000  -0.000  -0.274  -0.000  -0.000  -0.000  -8.819   0.000  -0.000   0.000  -0.000  -0.000
 -0.000   0.000  -8.549   0.000   0.000  -0.000   0.000   0.000  -0.274   0.000  -0.000   0.000  -8.628   0.000   0.000  -0.000
 -0.000  -0.000   0.000   0.000  -8.911   0.000  -0.000   0.000   0.000  -0.000  -0.000  -0.000   0.000   0.000  -9.002   0.000
 -0.274   0.000   0.000   0.000  -0.000   0.000  -8.549   0.000  -0.000   0.000  -0.282   0.000   0.000   0.000  -0.000   0.000
 -0.000  -0.000  -0.274  -0.000   0.000  -0.000  -0.000   0.000  -8.736   0.000  -0.000  -0.000  -0.282  -0.000   0.000  -0.000
 -8.819   0.000  -0.000   0.000  -0.000  -0.000  -0.282  -0.000  -0.000  -0.000  -8.893   0.000  -0.000   0.000  -0.000  -0.000
 -0.000   0.000  -8.628   0.000   0.000  -0.000   0.000   0.000  -0.282   0.000  -0.000   0.000  -8.696   0.000   0.000  -0.000
 -0.000  -0.000   0.000   0.000  -9.002   0.000  -0.000   0.000   0.000  -0.000  -0.000  -0.000   0.000   0.000  -9.085   0.000
 -0.282   0.000   0.000   0.000  -0.000   0.000  -8.628   0.000  -0.000   0.000  -0.293   0.000   0.000   0.000  -0.000   0.000
 -0.000  -0.000  -0.282  -0.000   0.000  -0.000  -0.000   0.000  -8.819   0.000  -0.000  -0.000  -0.293  -0.000   0.000  -0.000
 -0.000  -0.000  -0.000  -0.000  -0.014   0.000   0.000  -0.000   0.000  -0.000  -0.000  -0.000  -0.000  -0.000  -0.014   0.000
 -0.000  -0.000  -0.000  -0.000  -0.021   0.000   0.000  -0.000   0.000  -0.000  -0.000  -0.000  -0.000  -0.000  -0.021   0.000
 -0.000   0.000   0.000   0.000   0.000  -0.000  -0.000   0.000   0.000  -0.000  -0.000   0.000   0.000   0.000   0.000  -0.000
 -0.000   0.000  -0.000   0.000   0.000   0.000  -0.000   0.000  -0.000  -0.000  -0.000   0.000  -0.000   0.000   0.000   0.000
 -0.000   0.000  -0.000   0.000   0.000  -0.000   0.000   0.000   0.000   0.000  -0.000   0.000  -0.000   0.000   0.000  -0.000
 -0.000   0.000   0.000   0.000   0.000  -0.000  -0.000   0.000   0.000  -0.000  -0.000   0.000   0.000   0.000   0.000  -0.000
 -0.000   0.000  -0.000   0.000   0.000   0.000  -0.000   0.000  -0.000  -0.000  -0.000   0.000  -0.000   0.000   0.000   0.000
 -0.000   0.000  -0.000   0.000   0.000  -0.000   0.000   0.000  -0.000   0.000  -0.000   0.000  -0.000   0.000   0.000  -0.000
 total augmentation occupancy for first ion, spin component:           1
  1.800   0.000   0.000   0.000   0.000   0.000   0.000   0.000   0.000   0.000   0.000   0.000   0.000   0.000   0.000   0.000
  0.000   1.800   0.000   0.000   0.000   0.000   0.000   0.000   0.000   0.000   0.000   0.000   0.000   0.000   0.000   0.000
  0.000   0.000   1.800   0.000   0.000   0.000   0.000   0.000   0.000   0.000   0.000   0.000   0.000   0.000   0.000   0.000
  0.000   0.000   0.000   1.800   0.000   0.000   0.000   0.000   0.000   0.000   0.000   0.000   0.000   0.000   0.000   0.000
  0.000   0.000   0.000   0.000   1.800   0.000   0.000   0.000   0.000   0.000   0.000   0.000   0.000   0.000   0.000   0.000
  0.000   0.000   0.000   0.000   0.000   0.000   0.000   0.000   0.000   0.000   0.000   0.000   0.000   0.000   0.000   0.000
  0.000   0.000   0.000   0.000   0.000   0.000   0.000   0.000   0.000   0.000   0.000   0.000   0.000   0.000   0.000   0.000
  0.000   0.000   0.000   0.000   0.000   0.000   0.000   0.000   0.000   0.000   0.000   0.000   0.000   0.000   0.000   0.000
  0.000   0.000   0.000   0.000   0.000   0.000   0.000   0.000   0.000   0.000   0.000   0.000   0.000   0.000   0.000   0.000
  0.000   0.000   0.000   0.000   0.000   0.000   0.000   0.000   0.000   0.000   0.000   0.000   0.000   0.000   0.000   0.000
  0.000   0.000   0.000   0.000   0.000   0.000   0.000   0.000   0.000   0.000   1.000   0.000   0.000   0.000   0.000   0.000
  0.000   0.000   0.000   0.000   0.000   0.000   0.000   0.000   0.000   0.000   0.000   0.000   0.000   0.000   0.000   0.000
  0.000   0.000   0.000   0.000   0.000   0.000   0.000   0.000   0.000   0.000   0.000   0.000   0.000   0.000   0.000   0.000
  0.000   0.000   0.000   0.000   0.000   0.000   0.000   0.000   0.000   0.000   0.000   0.000   0.000   0.000   0.000   0.000
  0.000   0.000   0.000   0.000   0.000   0.000   0.000   0.000   0.000   0.000   0.000   0.000   0.000   0.000   0.000   0.000
  0.000   0.000   0.000   0.000   0.000   0.000   0.000   0.000   0.000   0.000   0.000   0.000   0.000   0.000   0.000   0.000
  0.000   0.000   0.000   0.000   0.000   0.000   0.000   0.000   0.000   0.000   0.000   0.000   0.000   0.000   0.000   0.000
  0.000   0.000   0.000   0.000   0.000   0.000   0.000   0.000   0.000   0.000   0.000   0.000   0.000   0.000   0.000   0.000


------------------------ aborting loop because EDIFF is reached ----------------------------------------





 total charge

# of ion       s       p       d       tot
------------------------------------------
    1        0.678   0.746   8.171   9.595
    2        1.355   2.286   0.000   3.642
    3        1.355   2.286   0.000   3.642
--------------------------------------------------
tot          3.389   5.319   8.171  16.879

    CHARGE:  cpu time      0.5428: real time      0.5455
    FORLOC:  cpu time      0.0040: real time      0.0041
    FORNL :  cpu time      0.6672: real time      0.6702
    STRESS:  cpu time      3.0791: real time      3.0933
    FORCOR:  cpu time      0.0437: real time      0.0440
    FORHAR:  cpu time      0.0134: real time      0.0135
    OFIELD:  cpu time      0.0004: real time      0.0004

  FORCE on cell =-STRESS in cart. coord.  units (eV):
  Direction    XX          YY          ZZ          XY          YZ          ZX
  --------------------------------------------------------------------------------------
  Alpha Z    14.47680    14.47680    14.47680
  Ewald    4339.53483  4339.53483 -5250.19328    -0.00000    -0.00000     0.00000
  Hartree  4535.37273  4535.37273 -4444.80504    -0.00000     0.00000    -0.00000
  E(xc)     -86.88462   -86.88462   -87.45304     0.00000     0.00000    -0.00000
  Local   -9277.32105 -9277.32105  9279.77439    -0.00000    -0.00000     0.00000
  n-local   156.04897   153.88179   155.00127     3.53776     0.81280     2.55855
  augment    16.68646    16.68648    17.15340     0.00002     0.00001    -0.00001
  Kinetic   303.31126   302.20784   315.32341     2.06580     1.21182     3.94795
  Fock        0.00000     0.00000     0.00000     0.00000     0.00000     0.00000
  -------------------------------------------------------------------------------------
  Total      -0.40991    -0.40991    -0.72210    -0.00000     0.00000    -0.00000
  in kB      -2.97280    -2.97280    -5.23690    -0.00000     0.00000    -0.00000
  external pressure =       -3.73 kB  Pullay stress =        0.00 kB


 VOLUME and BASIS-vectors are now :
 -----------------------------------------------------------------------------
  energy-cutoff  :      600.00
  volume of cell :      220.92
      direct lattice vectors                 reciprocal lattice vectors
     3.544549068  0.000000000  0.000000000     0.282123334  0.162883983 -0.000000000
    -1.772274534  3.069669538  0.000000000     0.000000000  0.325767965  0.000000000
     0.000000000  0.000000000 20.304065131     0.000000000 -0.000000000  0.049251221

  length of vectors
     3.544549068  3.544549068 20.304065131     0.325767965  0.325767965  0.049251221


 FORCES acting on ions
    electron-ion (+dipol)            ewald-force                    non-local-force                 convergence-correction
 -----------------------------------------------------------------------------------------------
   0.222E-14 -.637E-14 -.361E-13   0.920E-14 0.265E-15 0.000E+00   0.181E-24 0.000E+00 0.000E+00   0.755E-13 -.856E-13 0.217E-11
   0.824E-07 -.471E-07 0.559E+03   -.264E-11 0.101E-11 -.566E+03   0.104E-16 0.000E+00 0.704E+01   -.167E-03 0.962E-04 -.170E+00
   -.824E-07 0.471E-07 -.559E+03   0.263E-11 -.101E-11 0.566E+03   -.139E-16 0.000E+00 -.704E+01   0.167E-03 -.962E-04 0.170E+00
 -----------------------------------------------------------------------------------------------
   -.210E-12 0.614E-13 -.574E-11   -.538E-14 0.484E-15 0.000E+00   -.347E-17 0.000E+00 0.000E+00   -.277E-14 -.899E-13 0.418E-11


 POSITION                                       TOTAL-FORCE (eV/Angst)
 -----------------------------------------------------------------------------------
      0.00000      0.00000      0.00000         0.000000      0.000000      0.000000
      1.77227      1.02322     19.07070        -0.000000     -0.000000      0.128686
     -0.00000      2.04645      1.23336         0.000000      0.000000     -0.128686
 -----------------------------------------------------------------------------------
    total drift:                               -0.000000     -0.000000     -0.000000


--------------------------------------------------------------------------------------------------------



  FREE ENERGIE OF THE ION-ELECTRON SYSTEM (eV)
  ---------------------------------------------------
  free  energy   TOTEN  =       -13.35712466 eV

  energy  without entropy=      -13.35712466  energy(sigma->0) =      -13.35712466



--------------------------------------------------------------------------------------------------------


    POTLOK:  cpu time      0.1964: real time      0.1972


--------------------------------------------------------------------------------------------------------


     LOOP+:  cpu time     88.0310: real time     88.6397
    4ORBIT:  cpu time      0.0000: real time      0.0000



 total charge

# of ion       s       p       d       tot
------------------------------------------
    1        0.678   0.746   8.171   9.595
    2        1.355   2.286   0.000   3.642
    3        1.355   2.286   0.000   3.642
--------------------------------------------------
tot          3.389   5.319   8.171  16.879


 total amount of memory used by VASP MPI-rank0   173986. kBytes
=======================================================================

   base      :      30000. kBytes
   nonl-proj :     111611. kBytes
   fftplans  :       3045. kBytes
   grid      :       4064. kBytes
   one-center:         15. kBytes
   wavefun   :      25251. kBytes

  
  
 General timing and accounting informations for this job:
 ========================================================
  
                  Total CPU time used (sec):       96.700
                            User time (sec):       95.629
                          System time (sec):        1.071
                         Elapsed time (sec):       98.446
  
                   Maximum memory used (kb):      400764.
                   Average memory used (kb):          N/A
  
                          Minor page faults:        56895
                          Major page faults:            7
                 Voluntary context switches:         4746
