 vasp.6.4.2 20Jul23 (build Jun 20 2024 14:04:24) complex                         
 executed on             LinuxGNU date 2026.03.10  01:48:03
 running   28 mpi-ranks, with    1 threads/rank, on    1 nodes
 distrk:  each k-point on   28 cores,    1 groups
 distr:  one band on NCORE=   7 cores,    4 groups


--------------------------------------------------------------------------------------------------------


 INCAR:
   SYSTEM = PtS2
   ALGO = Normal
   LREAL = False
   PREC = Accurate
   ICHARG = 11
   ISYM = 2
   LASPH = True
   IBRION = -1
   ISIF = 2
   NSW = 0
   NELM = 100
   NELMIN = 5
   ISMEAR = 0
   SIGMA = 0.05
   ENCUT = 600
   EDIFF = 1E-8
   LCHARG = True
   LWAVE = False
   LORBIT = 11
   NPAR = 4
   LDAU = True
   LDAUTYPE = 2
   LDAUL = 2 -1
   LDAUU = 3.00 0.00
   LDAUJ = 0.00 0.00
   LMAXMIX = 4
   LDAUPRINT = 1

 POTCAR:    PAW_PBE Pt 04Feb2005                  
 POTCAR:    PAW_PBE Se 06Sep2000                  
 POTCAR:    PAW_PBE Pt 04Feb2005                  
   SHA256 =  3ed90460adef76debcff1cfb73ee1349b515b1a3db03439735b44de3a8db7dc8 Pt/POTCAR             
   COPYR  = (c) Copyright 04Feb2005 Georg Kresse                                                    
   COPYR  = This file is part of the software VASP. Any use, copying, and all other rights are regul
   COPYR  = If you do not have a valid VASP license, you may not use, copy or distribute this file. 
   VRHFIN =Pt: s1d9                                                                                 
   LEXCH  = PE                                                                                      
   EATOM  =   729.1176 eV,   53.5886 Ry                                                             
                                                                                                    
   TITEL  = PAW_PBE Pt 04Feb2005                                                                    
   LULTRA =        F    use ultrasoft PP ?                                                          
   IUNSCR =        1    unscreen: 0-lin 1-nonlin 2-no                                               
   RPACOR =    2.330    partial core radius                                                         
   POMASS =  195.080; ZVAL   =   10.000    mass and valenz                                          
   RCORE  =    2.600    outmost cutoff radius                                                       
   RWIGS  =    2.750; RWIGS  =    1.455    wigner-seitz radius (au A)                               
   ENMAX  =  230.283; ENMIN  =  172.712 eV                                                          
   ICORE  =        3    local potential                                                             
   LCOR   =        T    correct aug charges                                                         
   LPAW   =        T    paw PP                                                                      
   EAUG   =  358.966                                                                                
   DEXC   =    0.000                                                                                
   RMAX   =    2.658    core radius for proj-oper                                                   
   RAUG   =    1.300    factor for augmentation sphere                                              
   RDEP   =    2.761    radius for radial grids                                                     
   RDEPT  =    2.203    core radius for aug-charge                                                  
                                                                                                    
   Atomic configuration                                                                             
   16 entries                                                                                       
     n  l   j            E        occ.                                                              
     1  0  0.50    -78401.1885   2.0000                                                             
     2  0  0.50    -13770.7750   2.0000                                                             
     2  1  1.50    -11931.0468   6.0000                                                             
     3  0  0.50     -3234.7234   2.0000                                                             
     3  1  1.50     -2699.2216   6.0000                                                             
     3  2  2.50     -2119.5714  10.0000                                                             
     4  0  0.50      -695.1528   2.0000                                                             
     4  1  1.50      -519.6034   6.0000                                                             
     4  2  2.50      -306.6786  10.0000                                                             
     4  3  3.50       -70.1041  14.0000                                                             
     5  0  0.50      -101.7747   2.0000                                                             
     5  1  1.50       -55.9873   6.0000                                                             
     5  2  2.50        -6.1423   9.0000                                                             
     6  0  0.50        -5.6573   1.0000                                                             
     6  1  1.50        -6.8029   0.0000                                                             
     5  3  2.50        -1.3606   0.0000                                                             
   Description                                                                                      
     l       E           TYP  RCUT    TYP  RCUT                                                     
     2     -6.1423404     23  2.500                                                                 
     2     -7.5029230     23  2.500                                                                 
     0     -5.6573207     23  2.500                                                                 
     0      0.7416693     23  2.500                                                                 
     1     -2.7211652     23  2.600                                                                 
     1     20.4087390     23  2.600                                                                 
     3     -1.3605826     23  2.500                                                                 
  local pseudopotential read in
  partial core-charges read in
  partial kinetic energy density read in
  atomic valenz-charges read in
  non local Contribution for L=           2  read in
    real space projection operators read in
  non local Contribution for L=           2  read in
    real space projection operators read in
  non local Contribution for L=           0  read in
    real space projection operators read in
  non local Contribution for L=           0  read in
    real space projection operators read in
  non local Contribution for L=           1  read in
    real space projection operators read in
  non local Contribution for L=           1  read in
    real space projection operators read in
    PAW grid and wavefunctions read in

   number of l-projection  operators is LMAX  =           6
   number of lm-projection operators is LMMAX =          18

 POTCAR:    PAW_PBE Se 06Sep2000                  
   SHA256 =  eabb916e6b4c819dc065ce039373bc328651da483898f08fb9e49c498452bf12 Se/POTCAR             
   COPYR  = (c) Copyright 06Sep2000 Georg Kresse                                                    
   COPYR  = This file is part of the software VASP. Any use, copying, and all other rights are regul
   COPYR  = If you do not have a valid VASP license, you may not use, copy or distribute this file. 
   VRHFIN =Se: s2p4                                                                                 
   LEXCH  = PE                                                                                      
   EATOM  =   257.1286 eV,   18.8984 Ry                                                             
                                                                                                    
   TITEL  = PAW_PBE Se 06Sep2000                                                                    
   LULTRA =        F    use ultrasoft PP ?                                                          
   IUNSCR =        1    unscreen: 0-lin 1-nonlin 2-no                                               
   RPACOR =    1.900    partial core radius                                                         
   POMASS =   78.960; ZVAL   =    6.000    mass and valenz                                          
   RCORE  =    2.100    outmost cutoff radius                                                       
   RWIGS  =    2.200; RWIGS  =    1.164    wigner-seitz radius (au A)                               
   ENMAX  =  211.555; ENMIN  =  158.666 eV                                                          
   ICORE  =        3    local potential                                                             
   LCOR   =        T    correct aug charges                                                         
   LPAW   =        T    paw PP                                                                      
   EAUG   =  446.842                                                                                
   DEXC   =    0.000                                                                                
   RMAX   =    2.147    core radius for proj-oper                                                   
   RAUG   =    1.300    factor for augmentation sphere                                              
   RDEP   =    2.177    radius for radial grids                                                     
   RDEPT  =    1.928    core radius for aug-charge                                                  
                                                                                                    
   Atomic configuration                                                                             
   10 entries                                                                                       
     n  l   j            E        occ.                                                              
     1  0  0.50    -12503.4787   2.0000                                                             
     2  0  0.50     -1606.9547   2.0000                                                             
     2  1  1.50     -1413.3140   6.0000                                                             
     3  0  0.50      -213.4885   2.0000                                                             
     3  1  1.50      -152.9538   6.0000                                                             
     3  2  2.50       -53.1221  10.0000                                                             
     4  0  0.50       -17.2865   2.0000                                                             
     4  1  0.50        -6.5110   4.0000                                                             
     4  2  2.50        -6.8029   0.0000                                                             
     4  3  2.50        -6.8029   0.0000                                                             
   Description                                                                                      
     l       E           TYP  RCUT    TYP  RCUT                                                     
     0    -17.2865377     23  2.100                                                                 
     0    -15.3094411     23  2.100                                                                 
     1     -6.5110275     23  2.100                                                                 
     1     -0.0695192     23  2.100                                                                 
     2     -6.8029130     23  2.100                                                                 
     3     -1.3605826      7  2.100                                                                 
  local pseudopotential read in
  partial core-charges read in
  partial kinetic energy density read in
  atomic valenz-charges read in
  non local Contribution for L=           0  read in
    real space projection operators read in
  non local Contribution for L=           0  read in
    real space projection operators read in
  non local Contribution for L=           1  read in
    real space projection operators read in
  non local Contribution for L=           1  read in
    real space projection operators read in
  non local Contribution for L=           2  read in
    real space projection operators read in
    PAW grid and wavefunctions read in

   number of l-projection  operators is LMAX  =           5
   number of lm-projection operators is LMMAX =          13

  PAW_PBE Pt 04Feb2005                  :
 energy of atom  1       EATOM= -729.1176
 kinetic energy error for atom=    0.0012 (will be added to EATOM!!)
  PAW_PBE Se 06Sep2000                  :
 energy of atom  2       EATOM= -257.1286
 kinetic energy error for atom=    0.0006 (will be added to EATOM!!)


 POSCAR: PtSe
  positions in direct lattice
  No initial velocities read in
 exchange correlation table for  LEXCH =        8
   RHO(1)=    0.500       N(1)  =     2000
   RHO(2)=  100.500       N(2)  =     4000



--------------------------------------------------------------------------------------------------------


 ion  position               nearest neighbor table
   1  0.000  0.000  0.000-   2 2.52   3 2.52   2 2.52   3 2.52   2 2.52   3 2.52
   2  0.667  0.333  0.936-   1 2.52   1 2.52   1 2.52
   3  0.333  0.667  0.064-   1 2.52   1 2.52   1 2.52

  LATTYP: Found a hexagonal cell.
 ALAT       =     3.7211340265
 C/A-ratio  =     5.4738920202
  
  Lattice vectors:
  
 A1 = (   3.7211340265,   0.0000000000,   0.0000000000)
 A2 = (  -1.8605670133,   3.2225965978,   0.0000000000)
 A3 = (   0.0000000000,   0.0000000000,  20.3690858538)


Analysis of symmetry for initial positions (statically):
=====================================================================
 Subroutine PRICEL returns:
 Original cell was already a primitive cell.
 

 Routine SETGRP: Setting up the symmetry group for a 
 hexagonal supercell.


 Subroutine GETGRP returns: Found 12 space group operations
 (whereof 12 operations were pure point group operations)
 out of a pool of 24 trial point group operations.


The static configuration has the point symmetry D_3d.


Analysis of symmetry for dynamics (positions and initial velocities):
=====================================================================
 Subroutine PRICEL returns:
 Original cell was already a primitive cell.
 

 Routine SETGRP: Setting up the symmetry group for a 
 hexagonal supercell.


 Subroutine GETGRP returns: Found 12 space group operations
 (whereof 12 operations were pure point group operations)
 out of a pool of 24 trial point group operations.


The dynamic configuration has the point symmetry D_3d.


 Subroutine INISYM returns: Found 12 space group operations
 (whereof 12 operations are pure point group operations),
 and found     1 'primitive' translations


----------------------------------------------------------------------------------------

                                     Primitive cell                                     

  volume of cell :     244.2602

  direct lattice vectors                    reciprocal lattice vectors
     3.721134027  0.000000000  0.000000000     0.268735281  0.155154387 -0.000000000
    -1.860567013  3.222596598  0.000000000     0.000000000  0.310308774  0.000000000
     0.000000000  0.000000000 20.369085854     0.000000000 -0.000000000  0.049094005

  length of vectors
     3.721134027  3.721134027 20.369085854     0.310308774  0.310308774  0.049094005

  position of ions in fractional coordinates (direct lattice)
     0.000000000  0.000000000  0.000000000
     0.666666667  0.333333333  0.935537908
     0.333333333  0.666666667  0.064462092

  ion indices of the primitive-cell ions
   primitive index   ion index
                 1           1
                 2           2
                 3           3

----------------------------------------------------------------------------------------



 KPOINTS: HEX (hexagonal) G-M-K-G                 

Interpolating k-points between supplied coordinates.

 Line segments in fractional coordinates (reciprocal lattice):
    0.000000  0.000000  0.000000  ...  0.333333  0.333333  0.000000
    0.333333  0.333333  0.000000  ...  0.500000  0.000000  0.000000
    0.500000  0.000000  0.000000  ...  0.000000  0.000000  0.000000

 Generated   120 points on each line segment, for a total of    360 k-points:

 Following reciprocal coordinates:
            Coordinates               Weight
  0.000000  0.000000  0.000000      0.002778
  0.002801  0.002801  0.000000      0.002778
  0.005602  0.005602  0.000000      0.002778
  0.008403  0.008403  0.000000      0.002778
  0.011204  0.011204  0.000000      0.002778
  0.014006  0.014006  0.000000      0.002778
  0.016807  0.016807  0.000000      0.002778
  0.019608  0.019608  0.000000      0.002778
  0.022409  0.022409  0.000000      0.002778
  0.025210  0.025210  0.000000      0.002778
  0.028011  0.028011  0.000000      0.002778
  0.030812  0.030812  0.000000      0.002778
  0.033613  0.033613  0.000000      0.002778
  0.036415  0.036415  0.000000      0.002778
  0.039216  0.039216  0.000000      0.002778
  0.042017  0.042017  0.000000      0.002778
  0.044818  0.044818  0.000000      0.002778
  0.047619  0.047619  0.000000      0.002778
  0.050420  0.050420  0.000000      0.002778
  0.053221  0.053221  0.000000      0.002778
  0.056022  0.056022  0.000000      0.002778
  0.058824  0.058824  0.000000      0.002778
  0.061625  0.061625  0.000000      0.002778
  0.064426  0.064426  0.000000      0.002778
  0.067227  0.067227  0.000000      0.002778
  0.070028  0.070028  0.000000      0.002778
  0.072829  0.072829  0.000000      0.002778
  0.075630  0.075630  0.000000      0.002778
  0.078431  0.078431  0.000000      0.002778
  0.081232  0.081232  0.000000      0.002778
  0.084034  0.084034  0.000000      0.002778
  0.086835  0.086835  0.000000      0.002778
  0.089636  0.089636  0.000000      0.002778
  0.092437  0.092437  0.000000      0.002778
  0.095238  0.095238  0.000000      0.002778
  0.098039  0.098039  0.000000      0.002778
  0.100840  0.100840  0.000000      0.002778
  0.103641  0.103641  0.000000      0.002778
  0.106443  0.106443  0.000000      0.002778
  0.109244  0.109244  0.000000      0.002778
  0.112045  0.112045  0.000000      0.002778
  0.114846  0.114846  0.000000      0.002778
  0.117647  0.117647  0.000000      0.002778
  0.120448  0.120448  0.000000      0.002778
  0.123249  0.123249  0.000000      0.002778
  0.126050  0.126050  0.000000      0.002778
  0.128852  0.128852  0.000000      0.002778
  0.131653  0.131653  0.000000      0.002778
  0.134454  0.134454  0.000000      0.002778
  0.137255  0.137255  0.000000      0.002778
  0.140056  0.140056  0.000000      0.002778
  0.142857  0.142857  0.000000      0.002778
  0.145658  0.145658  0.000000      0.002778
  0.148459  0.148459  0.000000      0.002778
  0.151261  0.151261  0.000000      0.002778
  0.154062  0.154062  0.000000      0.002778
  0.156863  0.156863  0.000000      0.002778
  0.159664  0.159664  0.000000      0.002778
  0.162465  0.162465  0.000000      0.002778
  0.165266  0.165266  0.000000      0.002778
  0.168067  0.168067  0.000000      0.002778
  0.170868  0.170868  0.000000      0.002778
  0.173669  0.173669  0.000000      0.002778
  0.176471  0.176471  0.000000      0.002778
  0.179272  0.179272  0.000000      0.002778
  0.182073  0.182073  0.000000      0.002778
  0.184874  0.184874  0.000000      0.002778
  0.187675  0.187675  0.000000      0.002778
  0.190476  0.190476  0.000000      0.002778
  0.193277  0.193277  0.000000      0.002778
  0.196078  0.196078  0.000000      0.002778
  0.198880  0.198880  0.000000      0.002778
  0.201681  0.201681  0.000000      0.002778
  0.204482  0.204482  0.000000      0.002778
  0.207283  0.207283  0.000000      0.002778
  0.210084  0.210084  0.000000      0.002778
  0.212885  0.212885  0.000000      0.002778
  0.215686  0.215686  0.000000      0.002778
  0.218487  0.218487  0.000000      0.002778
  0.221289  0.221289  0.000000      0.002778
  0.224090  0.224090  0.000000      0.002778
  0.226891  0.226891  0.000000      0.002778
  0.229692  0.229692  0.000000      0.002778
  0.232493  0.232493  0.000000      0.002778
  0.235294  0.235294  0.000000      0.002778
  0.238095  0.238095  0.000000      0.002778
  0.240896  0.240896  0.000000      0.002778
  0.243697  0.243697  0.000000      0.002778
  0.246499  0.246499  0.000000      0.002778
  0.249300  0.249300  0.000000      0.002778
  0.252101  0.252101  0.000000      0.002778
  0.254902  0.254902  0.000000      0.002778
  0.257703  0.257703  0.000000      0.002778
  0.260504  0.260504  0.000000      0.002778
  0.263305  0.263305  0.000000      0.002778
  0.266106  0.266106  0.000000      0.002778
  0.268908  0.268908  0.000000      0.002778
  0.271709  0.271709  0.000000      0.002778
  0.274510  0.274510  0.000000      0.002778
  0.277311  0.277311  0.000000      0.002778
  0.280112  0.280112  0.000000      0.002778
  0.282913  0.282913  0.000000      0.002778
  0.285714  0.285714  0.000000      0.002778
  0.288515  0.288515  0.000000      0.002778
  0.291317  0.291317  0.000000      0.002778
  0.294118  0.294118  0.000000      0.002778
  0.296919  0.296919  0.000000      0.002778
  0.299720  0.299720  0.000000      0.002778
  0.302521  0.302521  0.000000      0.002778
  0.305322  0.305322  0.000000      0.002778
  0.308123  0.308123  0.000000      0.002778
  0.310924  0.310924  0.000000      0.002778
  0.313725  0.313725  0.000000      0.002778
  0.316527  0.316527  0.000000      0.002778
  0.319328  0.319328  0.000000      0.002778
  0.322129  0.322129  0.000000      0.002778
  0.324930  0.324930  0.000000      0.002778
  0.327731  0.327731  0.000000      0.002778
  0.330532  0.330532  0.000000      0.002778
  0.333333  0.333333  0.000000      0.002778
  0.333333  0.333333  0.000000      0.002778
  0.334734  0.330532  0.000000      0.002778
  0.336134  0.327731  0.000000      0.002778
  0.337535  0.324930  0.000000      0.002778
  0.338936  0.322129  0.000000      0.002778
  0.340336  0.319328  0.000000      0.002778
  0.341737  0.316527  0.000000      0.002778
  0.343137  0.313725  0.000000      0.002778
  0.344538  0.310924  0.000000      0.002778
  0.345938  0.308123  0.000000      0.002778
  0.347339  0.305322  0.000000      0.002778
  0.348739  0.302521  0.000000      0.002778
  0.350140  0.299720  0.000000      0.002778
  0.351541  0.296919  0.000000      0.002778
  0.352941  0.294118  0.000000      0.002778
  0.354342  0.291317  0.000000      0.002778
  0.355742  0.288515  0.000000      0.002778
  0.357143  0.285714  0.000000      0.002778
  0.358543  0.282913  0.000000      0.002778
  0.359944  0.280112  0.000000      0.002778
  0.361345  0.277311  0.000000      0.002778
  0.362745  0.274510  0.000000      0.002778
  0.364146  0.271709  0.000000      0.002778
  0.365546  0.268908  0.000000      0.002778
  0.366947  0.266106  0.000000      0.002778
  0.368347  0.263305  0.000000      0.002778
  0.369748  0.260504  0.000000      0.002778
  0.371148  0.257703  0.000000      0.002778
  0.372549  0.254902  0.000000      0.002778
  0.373950  0.252101  0.000000      0.002778
  0.375350  0.249300  0.000000      0.002778
  0.376751  0.246499  0.000000      0.002778
  0.378151  0.243697  0.000000      0.002778
  0.379552  0.240896  0.000000      0.002778
  0.380952  0.238095  0.000000      0.002778
  0.382353  0.235294  0.000000      0.002778
  0.383753  0.232493  0.000000      0.002778
  0.385154  0.229692  0.000000      0.002778
  0.386555  0.226891  0.000000      0.002778
  0.387955  0.224090  0.000000      0.002778
  0.389356  0.221289  0.000000      0.002778
  0.390756  0.218487  0.000000      0.002778
  0.392157  0.215686  0.000000      0.002778
  0.393557  0.212885  0.000000      0.002778
  0.394958  0.210084  0.000000      0.002778
  0.396359  0.207283  0.000000      0.002778
  0.397759  0.204482  0.000000      0.002778
  0.399160  0.201681  0.000000      0.002778
  0.400560  0.198880  0.000000      0.002778
  0.401961  0.196078  0.000000      0.002778
  0.403361  0.193277  0.000000      0.002778
  0.404762  0.190476  0.000000      0.002778
  0.406162  0.187675  0.000000      0.002778
  0.407563  0.184874  0.000000      0.002778
  0.408964  0.182073  0.000000      0.002778
  0.410364  0.179272  0.000000      0.002778
  0.411765  0.176471  0.000000      0.002778
  0.413165  0.173669  0.000000      0.002778
  0.414566  0.170868  0.000000      0.002778
  0.415966  0.168067  0.000000      0.002778
  0.417367  0.165266  0.000000      0.002778
  0.418768  0.162465  0.000000      0.002778
  0.420168  0.159664  0.000000      0.002778
  0.421569  0.156863  0.000000      0.002778
  0.422969  0.154062  0.000000      0.002778
  0.424370  0.151261  0.000000      0.002778
  0.425770  0.148459  0.000000      0.002778
  0.427171  0.145658  0.000000      0.002778
  0.428571  0.142857  0.000000      0.002778
  0.429972  0.140056  0.000000      0.002778
  0.431373  0.137255  0.000000      0.002778
  0.432773  0.134454  0.000000      0.002778
  0.434174  0.131653  0.000000      0.002778
  0.435574  0.128852  0.000000      0.002778
  0.436975  0.126050  0.000000      0.002778
  0.438375  0.123249  0.000000      0.002778
  0.439776  0.120448  0.000000      0.002778
  0.441176  0.117647  0.000000      0.002778
  0.442577  0.114846  0.000000      0.002778
  0.443978  0.112045  0.000000      0.002778
  0.445378  0.109244  0.000000      0.002778
  0.446779  0.106443  0.000000      0.002778
  0.448179  0.103641  0.000000      0.002778
  0.449580  0.100840  0.000000      0.002778
  0.450980  0.098039  0.000000      0.002778
  0.452381  0.095238  0.000000      0.002778
  0.453782  0.092437  0.000000      0.002778
  0.455182  0.089636  0.000000      0.002778
  0.456583  0.086835  0.000000      0.002778
  0.457983  0.084034  0.000000      0.002778
  0.459384  0.081232  0.000000      0.002778
  0.460784  0.078431  0.000000      0.002778
  0.462185  0.075630  0.000000      0.002778
  0.463585  0.072829  0.000000      0.002778
  0.464986  0.070028  0.000000      0.002778
  0.466387  0.067227  0.000000      0.002778
  0.467787  0.064426  0.000000      0.002778
  0.469188  0.061625  0.000000      0.002778
  0.470588  0.058824  0.000000      0.002778
  0.471989  0.056022  0.000000      0.002778
  0.473389  0.053221  0.000000      0.002778
  0.474790  0.050420  0.000000      0.002778
  0.476190  0.047619  0.000000      0.002778
  0.477591  0.044818  0.000000      0.002778
  0.478992  0.042017  0.000000      0.002778
  0.480392  0.039216  0.000000      0.002778
  0.481793  0.036415  0.000000      0.002778
  0.483193  0.033613  0.000000      0.002778
  0.484594  0.030812  0.000000      0.002778
  0.485994  0.028011  0.000000      0.002778
  0.487395  0.025210  0.000000      0.002778
  0.488796  0.022409  0.000000      0.002778
  0.490196  0.019608  0.000000      0.002778
  0.491597  0.016807  0.000000      0.002778
  0.492997  0.014006  0.000000      0.002778
  0.494398  0.011204  0.000000      0.002778
  0.495798  0.008403  0.000000      0.002778
  0.497199  0.005602  0.000000      0.002778
  0.498599  0.002801  0.000000      0.002778
  0.500000  0.000000  0.000000      0.002778
  0.500000  0.000000  0.000000      0.002778
  0.495798  0.000000  0.000000      0.002778
  0.491597  0.000000  0.000000      0.002778
  0.487395  0.000000  0.000000      0.002778
  0.483193  0.000000  0.000000      0.002778
  0.478992  0.000000  0.000000      0.002778
  0.474790  0.000000  0.000000      0.002778
  0.470588  0.000000  0.000000      0.002778
  0.466387  0.000000  0.000000      0.002778
  0.462185  0.000000  0.000000      0.002778
  0.457983  0.000000  0.000000      0.002778
  0.453782  0.000000  0.000000      0.002778
  0.449580  0.000000  0.000000      0.002778
  0.445378  0.000000  0.000000      0.002778
  0.441176  0.000000  0.000000      0.002778
  0.436975  0.000000  0.000000      0.002778
  0.432773  0.000000  0.000000      0.002778
  0.428571  0.000000  0.000000      0.002778
  0.424370  0.000000  0.000000      0.002778
  0.420168  0.000000  0.000000      0.002778
  0.415966  0.000000  0.000000      0.002778
  0.411765  0.000000  0.000000      0.002778
  0.407563  0.000000  0.000000      0.002778
  0.403361  0.000000  0.000000      0.002778
  0.399160  0.000000  0.000000      0.002778
  0.394958  0.000000  0.000000      0.002778
  0.390756  0.000000  0.000000      0.002778
  0.386555  0.000000  0.000000      0.002778
  0.382353  0.000000  0.000000      0.002778
  0.378151  0.000000  0.000000      0.002778
  0.373950  0.000000  0.000000      0.002778
  0.369748  0.000000  0.000000      0.002778
  0.365546  0.000000  0.000000      0.002778
  0.361345  0.000000  0.000000      0.002778
  0.357143  0.000000  0.000000      0.002778
  0.352941  0.000000  0.000000      0.002778
  0.348739  0.000000  0.000000      0.002778
  0.344538  0.000000  0.000000      0.002778
  0.340336  0.000000  0.000000      0.002778
  0.336134  0.000000  0.000000      0.002778
  0.331933  0.000000  0.000000      0.002778
  0.327731  0.000000  0.000000      0.002778
  0.323529  0.000000  0.000000      0.002778
  0.319328  0.000000  0.000000      0.002778
  0.315126  0.000000  0.000000      0.002778
  0.310924  0.000000  0.000000      0.002778
  0.306723  0.000000  0.000000      0.002778
  0.302521  0.000000  0.000000      0.002778
  0.298319  0.000000  0.000000      0.002778
  0.294118  0.000000  0.000000      0.002778
  0.289916  0.000000  0.000000      0.002778
  0.285714  0.000000  0.000000      0.002778
  0.281513  0.000000  0.000000      0.002778
  0.277311  0.000000  0.000000      0.002778
  0.273109  0.000000  0.000000      0.002778
  0.268908  0.000000  0.000000      0.002778
  0.264706  0.000000  0.000000      0.002778
  0.260504  0.000000  0.000000      0.002778
  0.256303  0.000000  0.000000      0.002778
  0.252101  0.000000  0.000000      0.002778
  0.247899  0.000000  0.000000      0.002778
  0.243697  0.000000  0.000000      0.002778
  0.239496  0.000000  0.000000      0.002778
  0.235294  0.000000  0.000000      0.002778
  0.231092  0.000000  0.000000      0.002778
  0.226891  0.000000  0.000000      0.002778
  0.222689  0.000000  0.000000      0.002778
  0.218487  0.000000  0.000000      0.002778
  0.214286  0.000000  0.000000      0.002778
  0.210084  0.000000  0.000000      0.002778
  0.205882  0.000000  0.000000      0.002778
  0.201681  0.000000  0.000000      0.002778
  0.197479  0.000000  0.000000      0.002778
  0.193277  0.000000  0.000000      0.002778
  0.189076  0.000000  0.000000      0.002778
  0.184874  0.000000  0.000000      0.002778
  0.180672  0.000000  0.000000      0.002778
  0.176471  0.000000  0.000000      0.002778
  0.172269  0.000000  0.000000      0.002778
  0.168067  0.000000  0.000000      0.002778
  0.163866  0.000000  0.000000      0.002778
  0.159664  0.000000  0.000000      0.002778
  0.155462  0.000000  0.000000      0.002778
  0.151261  0.000000  0.000000      0.002778
  0.147059  0.000000  0.000000      0.002778
  0.142857  0.000000  0.000000      0.002778
  0.138655  0.000000  0.000000      0.002778
  0.134454  0.000000  0.000000      0.002778
  0.130252  0.000000  0.000000      0.002778
  0.126050  0.000000  0.000000      0.002778
  0.121849  0.000000  0.000000      0.002778
  0.117647  0.000000  0.000000      0.002778
  0.113445  0.000000  0.000000      0.002778
  0.109244  0.000000  0.000000      0.002778
  0.105042  0.000000  0.000000      0.002778
  0.100840  0.000000  0.000000      0.002778
  0.096639  0.000000  0.000000      0.002778
  0.092437  0.000000  0.000000      0.002778
  0.088235  0.000000  0.000000      0.002778
  0.084034  0.000000  0.000000      0.002778
  0.079832  0.000000  0.000000      0.002778
  0.075630  0.000000  0.000000      0.002778
  0.071429  0.000000  0.000000      0.002778
  0.067227  0.000000  0.000000      0.002778
  0.063025  0.000000  0.000000      0.002778
  0.058824  0.000000  0.000000      0.002778
  0.054622  0.000000  0.000000      0.002778
  0.050420  0.000000  0.000000      0.002778
  0.046218  0.000000  0.000000      0.002778
  0.042017  0.000000  0.000000      0.002778
  0.037815  0.000000  0.000000      0.002778
  0.033613  0.000000  0.000000      0.002778
  0.029412  0.000000  0.000000      0.002778
  0.025210  0.000000  0.000000      0.002778
  0.021008  0.000000  0.000000      0.002778
  0.016807  0.000000  0.000000      0.002778
  0.012605  0.000000  0.000000      0.002778
  0.008403  0.000000  0.000000      0.002778
  0.004202  0.000000  0.000000      0.002778
  0.000000  0.000000  0.000000      0.002778

 Following cartesian coordinates:
            Coordinates               Weight
  0.000000  0.000000  0.000000      0.002778
  0.000753  0.001304  0.000000      0.002778
  0.001506  0.002608  0.000000      0.002778
  0.002258  0.003911  0.000000      0.002778
  0.003011  0.005215  0.000000      0.002778
  0.003764  0.006519  0.000000      0.002778
  0.004517  0.007823  0.000000      0.002778
  0.005269  0.009127  0.000000      0.002778
  0.006022  0.010431  0.000000      0.002778
  0.006775  0.011734  0.000000      0.002778
  0.007528  0.013038  0.000000      0.002778
  0.008280  0.014342  0.000000      0.002778
  0.009033  0.015646  0.000000      0.002778
  0.009786  0.016950  0.000000      0.002778
  0.010539  0.018253  0.000000      0.002778
  0.011291  0.019557  0.000000      0.002778
  0.012044  0.020861  0.000000      0.002778
  0.012797  0.022165  0.000000      0.002778
  0.013550  0.023469  0.000000      0.002778
  0.014302  0.024773  0.000000      0.002778
  0.015055  0.026076  0.000000      0.002778
  0.015808  0.027380  0.000000      0.002778
  0.016561  0.028684  0.000000      0.002778
  0.017313  0.029988  0.000000      0.002778
  0.018066  0.031292  0.000000      0.002778
  0.018819  0.032595  0.000000      0.002778
  0.019572  0.033899  0.000000      0.002778
  0.020325  0.035203  0.000000      0.002778
  0.021077  0.036507  0.000000      0.002778
  0.021830  0.037811  0.000000      0.002778
  0.022583  0.039115  0.000000      0.002778
  0.023336  0.040418  0.000000      0.002778
  0.024088  0.041722  0.000000      0.002778
  0.024841  0.043026  0.000000      0.002778
  0.025594  0.044330  0.000000      0.002778
  0.026347  0.045634  0.000000      0.002778
  0.027099  0.046937  0.000000      0.002778
  0.027852  0.048241  0.000000      0.002778
  0.028605  0.049545  0.000000      0.002778
  0.029358  0.050849  0.000000      0.002778
  0.030110  0.052153  0.000000      0.002778
  0.030863  0.053457  0.000000      0.002778
  0.031616  0.054760  0.000000      0.002778
  0.032369  0.056064  0.000000      0.002778
  0.033121  0.057368  0.000000      0.002778
  0.033874  0.058672  0.000000      0.002778
  0.034627  0.059976  0.000000      0.002778
  0.035380  0.061279  0.000000      0.002778
  0.036132  0.062583  0.000000      0.002778
  0.036885  0.063887  0.000000      0.002778
  0.037638  0.065191  0.000000      0.002778
  0.038391  0.066495  0.000000      0.002778
  0.039144  0.067799  0.000000      0.002778
  0.039896  0.069102  0.000000      0.002778
  0.040649  0.070406  0.000000      0.002778
  0.041402  0.071710  0.000000      0.002778
  0.042155  0.073014  0.000000      0.002778
  0.042907  0.074318  0.000000      0.002778
  0.043660  0.075621  0.000000      0.002778
  0.044413  0.076925  0.000000      0.002778
  0.045166  0.078229  0.000000      0.002778
  0.045918  0.079533  0.000000      0.002778
  0.046671  0.080837  0.000000      0.002778
  0.047424  0.082141  0.000000      0.002778
  0.048177  0.083444  0.000000      0.002778
  0.048929  0.084748  0.000000      0.002778
  0.049682  0.086052  0.000000      0.002778
  0.050435  0.087356  0.000000      0.002778
  0.051188  0.088660  0.000000      0.002778
  0.051940  0.089963  0.000000      0.002778
  0.052693  0.091267  0.000000      0.002778
  0.053446  0.092571  0.000000      0.002778
  0.054199  0.093875  0.000000      0.002778
  0.054951  0.095179  0.000000      0.002778
  0.055704  0.096483  0.000000      0.002778
  0.056457  0.097786  0.000000      0.002778
  0.057210  0.099090  0.000000      0.002778
  0.057963  0.100394  0.000000      0.002778
  0.058715  0.101698  0.000000      0.002778
  0.059468  0.103002  0.000000      0.002778
  0.060221  0.104305  0.000000      0.002778
  0.060974  0.105609  0.000000      0.002778
  0.061726  0.106913  0.000000      0.002778
  0.062479  0.108217  0.000000      0.002778
  0.063232  0.109521  0.000000      0.002778
  0.063985  0.110825  0.000000      0.002778
  0.064737  0.112128  0.000000      0.002778
  0.065490  0.113432  0.000000      0.002778
  0.066243  0.114736  0.000000      0.002778
  0.066996  0.116040  0.000000      0.002778
  0.067748  0.117344  0.000000      0.002778
  0.068501  0.118647  0.000000      0.002778
  0.069254  0.119951  0.000000      0.002778
  0.070007  0.121255  0.000000      0.002778
  0.070759  0.122559  0.000000      0.002778
  0.071512  0.123863  0.000000      0.002778
  0.072265  0.125167  0.000000      0.002778
  0.073018  0.126470  0.000000      0.002778
  0.073770  0.127774  0.000000      0.002778
  0.074523  0.129078  0.000000      0.002778
  0.075276  0.130382  0.000000      0.002778
  0.076029  0.131686  0.000000      0.002778
  0.076782  0.132989  0.000000      0.002778
  0.077534  0.134293  0.000000      0.002778
  0.078287  0.135597  0.000000      0.002778
  0.079040  0.136901  0.000000      0.002778
  0.079793  0.138205  0.000000      0.002778
  0.080545  0.139509  0.000000      0.002778
  0.081298  0.140812  0.000000      0.002778
  0.082051  0.142116  0.000000      0.002778
  0.082804  0.143420  0.000000      0.002778
  0.083556  0.144724  0.000000      0.002778
  0.084309  0.146028  0.000000      0.002778
  0.085062  0.147331  0.000000      0.002778
  0.085815  0.148635  0.000000      0.002778
  0.086567  0.149939  0.000000      0.002778
  0.087320  0.151243  0.000000      0.002778
  0.088073  0.152547  0.000000      0.002778
  0.088826  0.153851  0.000000      0.002778
  0.089578  0.155154  0.000000      0.002778
  0.089578  0.155154  0.000000      0.002778
  0.089955  0.154502  0.000000      0.002778
  0.090331  0.153851  0.000000      0.002778
  0.090708  0.153199  0.000000      0.002778
  0.091084  0.152547  0.000000      0.002778
  0.091460  0.151895  0.000000      0.002778
  0.091837  0.151243  0.000000      0.002778
  0.092213  0.150591  0.000000      0.002778
  0.092589  0.149939  0.000000      0.002778
  0.092966  0.149287  0.000000      0.002778
  0.093342  0.148635  0.000000      0.002778
  0.093719  0.147983  0.000000      0.002778
  0.094095  0.147331  0.000000      0.002778
  0.094471  0.146680  0.000000      0.002778
  0.094848  0.146028  0.000000      0.002778
  0.095224  0.145376  0.000000      0.002778
  0.095601  0.144724  0.000000      0.002778
  0.095977  0.144072  0.000000      0.002778
  0.096353  0.143420  0.000000      0.002778
  0.096730  0.142768  0.000000      0.002778
  0.097106  0.142116  0.000000      0.002778
  0.097482  0.141464  0.000000      0.002778
  0.097859  0.140812  0.000000      0.002778
  0.098235  0.140160  0.000000      0.002778
  0.098612  0.139509  0.000000      0.002778
  0.098988  0.138857  0.000000      0.002778
  0.099364  0.138205  0.000000      0.002778
  0.099741  0.137553  0.000000      0.002778
  0.100117  0.136901  0.000000      0.002778
  0.100493  0.136249  0.000000      0.002778
  0.100870  0.135597  0.000000      0.002778
  0.101246  0.134945  0.000000      0.002778
  0.101623  0.134293  0.000000      0.002778
  0.101999  0.133641  0.000000      0.002778
  0.102375  0.132989  0.000000      0.002778
  0.102752  0.132338  0.000000      0.002778
  0.103128  0.131686  0.000000      0.002778
  0.103504  0.131034  0.000000      0.002778
  0.103881  0.130382  0.000000      0.002778
  0.104257  0.129730  0.000000      0.002778
  0.104634  0.129078  0.000000      0.002778
  0.105010  0.128426  0.000000      0.002778
  0.105386  0.127774  0.000000      0.002778
  0.105763  0.127122  0.000000      0.002778
  0.106139  0.126470  0.000000      0.002778
  0.106516  0.125818  0.000000      0.002778
  0.106892  0.125167  0.000000      0.002778
  0.107268  0.124515  0.000000      0.002778
  0.107645  0.123863  0.000000      0.002778
  0.108021  0.123211  0.000000      0.002778
  0.108397  0.122559  0.000000      0.002778
  0.108774  0.121907  0.000000      0.002778
  0.109150  0.121255  0.000000      0.002778
  0.109527  0.120603  0.000000      0.002778
  0.109903  0.119951  0.000000      0.002778
  0.110279  0.119299  0.000000      0.002778
  0.110656  0.118647  0.000000      0.002778
  0.111032  0.117996  0.000000      0.002778
  0.111408  0.117344  0.000000      0.002778
  0.111785  0.116692  0.000000      0.002778
  0.112161  0.116040  0.000000      0.002778
  0.112538  0.115388  0.000000      0.002778
  0.112914  0.114736  0.000000      0.002778
  0.113290  0.114084  0.000000      0.002778
  0.113667  0.113432  0.000000      0.002778
  0.114043  0.112780  0.000000      0.002778
  0.114420  0.112128  0.000000      0.002778
  0.114796  0.111476  0.000000      0.002778
  0.115172  0.110825  0.000000      0.002778
  0.115549  0.110173  0.000000      0.002778
  0.115925  0.109521  0.000000      0.002778
  0.116301  0.108869  0.000000      0.002778
  0.116678  0.108217  0.000000      0.002778
  0.117054  0.107565  0.000000      0.002778
  0.117431  0.106913  0.000000      0.002778
  0.117807  0.106261  0.000000      0.002778
  0.118183  0.105609  0.000000      0.002778
  0.118560  0.104957  0.000000      0.002778
  0.118936  0.104305  0.000000      0.002778
  0.119312  0.103654  0.000000      0.002778
  0.119689  0.103002  0.000000      0.002778
  0.120065  0.102350  0.000000      0.002778
  0.120442  0.101698  0.000000      0.002778
  0.120818  0.101046  0.000000      0.002778
  0.121194  0.100394  0.000000      0.002778
  0.121571  0.099742  0.000000      0.002778
  0.121947  0.099090  0.000000      0.002778
  0.122323  0.098438  0.000000      0.002778
  0.122700  0.097786  0.000000      0.002778
  0.123076  0.097134  0.000000      0.002778
  0.123453  0.096483  0.000000      0.002778
  0.123829  0.095831  0.000000      0.002778
  0.124205  0.095179  0.000000      0.002778
  0.124582  0.094527  0.000000      0.002778
  0.124958  0.093875  0.000000      0.002778
  0.125335  0.093223  0.000000      0.002778
  0.125711  0.092571  0.000000      0.002778
  0.126087  0.091919  0.000000      0.002778
  0.126464  0.091267  0.000000      0.002778
  0.126840  0.090615  0.000000      0.002778
  0.127216  0.089963  0.000000      0.002778
  0.127593  0.089312  0.000000      0.002778
  0.127969  0.088660  0.000000      0.002778
  0.128346  0.088008  0.000000      0.002778
  0.128722  0.087356  0.000000      0.002778
  0.129098  0.086704  0.000000      0.002778
  0.129475  0.086052  0.000000      0.002778
  0.129851  0.085400  0.000000      0.002778
  0.130227  0.084748  0.000000      0.002778
  0.130604  0.084096  0.000000      0.002778
  0.130980  0.083444  0.000000      0.002778
  0.131357  0.082792  0.000000      0.002778
  0.131733  0.082141  0.000000      0.002778
  0.132109  0.081489  0.000000      0.002778
  0.132486  0.080837  0.000000      0.002778
  0.132862  0.080185  0.000000      0.002778
  0.133239  0.079533  0.000000      0.002778
  0.133615  0.078881  0.000000      0.002778
  0.133991  0.078229  0.000000      0.002778
  0.134368  0.077577  0.000000      0.002778
  0.134368  0.077577  0.000000      0.002778
  0.133239  0.076925  0.000000      0.002778
  0.132109  0.076273  0.000000      0.002778
  0.130980  0.075621  0.000000      0.002778
  0.129851  0.074970  0.000000      0.002778
  0.128722  0.074318  0.000000      0.002778
  0.127593  0.073666  0.000000      0.002778
  0.126464  0.073014  0.000000      0.002778
  0.125335  0.072362  0.000000      0.002778
  0.124205  0.071710  0.000000      0.002778
  0.123076  0.071058  0.000000      0.002778
  0.121947  0.070406  0.000000      0.002778
  0.120818  0.069754  0.000000      0.002778
  0.119689  0.069102  0.000000      0.002778
  0.118560  0.068450  0.000000      0.002778
  0.117431  0.067799  0.000000      0.002778
  0.116301  0.067147  0.000000      0.002778
  0.115172  0.066495  0.000000      0.002778
  0.114043  0.065843  0.000000      0.002778
  0.112914  0.065191  0.000000      0.002778
  0.111785  0.064539  0.000000      0.002778
  0.110656  0.063887  0.000000      0.002778
  0.109527  0.063235  0.000000      0.002778
  0.108397  0.062583  0.000000      0.002778
  0.107268  0.061931  0.000000      0.002778
  0.106139  0.061279  0.000000      0.002778
  0.105010  0.060628  0.000000      0.002778
  0.103881  0.059976  0.000000      0.002778
  0.102752  0.059324  0.000000      0.002778
  0.101623  0.058672  0.000000      0.002778
  0.100493  0.058020  0.000000      0.002778
  0.099364  0.057368  0.000000      0.002778
  0.098235  0.056716  0.000000      0.002778
  0.097106  0.056064  0.000000      0.002778
  0.095977  0.055412  0.000000      0.002778
  0.094848  0.054760  0.000000      0.002778
  0.093719  0.054108  0.000000      0.002778
  0.092589  0.053457  0.000000      0.002778
  0.091460  0.052805  0.000000      0.002778
  0.090331  0.052153  0.000000      0.002778
  0.089202  0.051501  0.000000      0.002778
  0.088073  0.050849  0.000000      0.002778
  0.086944  0.050197  0.000000      0.002778
  0.085815  0.049545  0.000000      0.002778
  0.084685  0.048893  0.000000      0.002778
  0.083556  0.048241  0.000000      0.002778
  0.082427  0.047589  0.000000      0.002778
  0.081298  0.046937  0.000000      0.002778
  0.080169  0.046286  0.000000      0.002778
  0.079040  0.045634  0.000000      0.002778
  0.077911  0.044982  0.000000      0.002778
  0.076782  0.044330  0.000000      0.002778
  0.075652  0.043678  0.000000      0.002778
  0.074523  0.043026  0.000000      0.002778
  0.073394  0.042374  0.000000      0.002778
  0.072265  0.041722  0.000000      0.002778
  0.071136  0.041070  0.000000      0.002778
  0.070007  0.040418  0.000000      0.002778
  0.068878  0.039766  0.000000      0.002778
  0.067748  0.039115  0.000000      0.002778
  0.066619  0.038463  0.000000      0.002778
  0.065490  0.037811  0.000000      0.002778
  0.064361  0.037159  0.000000      0.002778
  0.063232  0.036507  0.000000      0.002778
  0.062103  0.035855  0.000000      0.002778
  0.060974  0.035203  0.000000      0.002778
  0.059844  0.034551  0.000000      0.002778
  0.058715  0.033899  0.000000      0.002778
  0.057586  0.033247  0.000000      0.002778
  0.056457  0.032595  0.000000      0.002778
  0.055328  0.031944  0.000000      0.002778
  0.054199  0.031292  0.000000      0.002778
  0.053070  0.030640  0.000000      0.002778
  0.051940  0.029988  0.000000      0.002778
  0.050811  0.029336  0.000000      0.002778
  0.049682  0.028684  0.000000      0.002778
  0.048553  0.028032  0.000000      0.002778
  0.047424  0.027380  0.000000      0.002778
  0.046295  0.026728  0.000000      0.002778
  0.045166  0.026076  0.000000      0.002778
  0.044036  0.025424  0.000000      0.002778
  0.042907  0.024773  0.000000      0.002778
  0.041778  0.024121  0.000000      0.002778
  0.040649  0.023469  0.000000      0.002778
  0.039520  0.022817  0.000000      0.002778
  0.038391  0.022165  0.000000      0.002778
  0.037262  0.021513  0.000000      0.002778
  0.036132  0.020861  0.000000      0.002778
  0.035003  0.020209  0.000000      0.002778
  0.033874  0.019557  0.000000      0.002778
  0.032745  0.018905  0.000000      0.002778
  0.031616  0.018253  0.000000      0.002778
  0.030487  0.017602  0.000000      0.002778
  0.029358  0.016950  0.000000      0.002778
  0.028228  0.016298  0.000000      0.002778
  0.027099  0.015646  0.000000      0.002778
  0.025970  0.014994  0.000000      0.002778
  0.024841  0.014342  0.000000      0.002778
  0.023712  0.013690  0.000000      0.002778
  0.022583  0.013038  0.000000      0.002778
  0.021454  0.012386  0.000000      0.002778
  0.020325  0.011734  0.000000      0.002778
  0.019195  0.011082  0.000000      0.002778
  0.018066  0.010431  0.000000      0.002778
  0.016937  0.009779  0.000000      0.002778
  0.015808  0.009127  0.000000      0.002778
  0.014679  0.008475  0.000000      0.002778
  0.013550  0.007823  0.000000      0.002778
  0.012421  0.007171  0.000000      0.002778
  0.011291  0.006519  0.000000      0.002778
  0.010162  0.005867  0.000000      0.002778
  0.009033  0.005215  0.000000      0.002778
  0.007904  0.004563  0.000000      0.002778
  0.006775  0.003911  0.000000      0.002778
  0.005646  0.003260  0.000000      0.002778
  0.004517  0.002608  0.000000      0.002778
  0.003387  0.001956  0.000000      0.002778
  0.002258  0.001304  0.000000      0.002778
  0.001129  0.000652  0.000000      0.002778
  0.000000  0.000000  0.000000      0.002778



--------------------------------------------------------------------------------------------------------




 Dimension of arrays:
   k-points           NKPTS =    360   k-points in BZ     NKDIM =    360   number of bands    NBANDS=     16
   number of dos      NEDOS =    301   number of ions     NIONS =      3
   non local maximal  LDIM  =      6   non local SUM 2l+1 LMDIM =     18
   total plane-waves  NPLWV = 151200
   max r-space proj   IRMAX =      1   max aug-charges    IRDMAX=  37687
   dimension x,y,z NGX =    30 NGY =   30 NGZ =  168
   dimension x,y,z NGXF=    60 NGYF=   60 NGZF=  336
   support grid    NGXF=    60 NGYF=   60 NGZF=  336
   ions per type =               1   2
   NGX,Y,Z   is equivalent  to a cutoff of  13.40, 13.40, 13.71 a.u.
   NGXF,Y,Z  is equivalent  to a cutoff of  26.81, 26.81, 27.42 a.u.

 SYSTEM =  PtS2                                    
 POSCAR =  PtSe                                    

 Startparameter for this run:
   NWRITE =      2    write-flag & timer
   PREC   = accura    normal or accurate (medium, high low for compatibility)
   ISTART =      0    job   : 0-new  1-cont  2-samecut
   ICHARG =     11    charge: 1-file 2-atom 10-const
   ISPIN  =      1    spin polarized calculation?
   LNONCOLLINEAR =      F non collinear calculations
   LSORBIT =      F    spin-orbit coupling
   INIWAV =      1    electr: 0-lowe 1-rand  2-diag
   LASPH  =      T    aspherical Exc in radial PAW
 Electronic Relaxation 1
   ENCUT  =  600.0 eV  44.10 Ry    6.64 a.u.   7.43  7.43 40.68*2*pi/ulx,y,z
   ENINI  =  600.0     initial cutoff
   ENAUG  =  446.8 eV  augmentation charge cutoff
   NELM   =    100;   NELMIN=  5; NELMDL= -5     # of ELM steps 
   EDIFF  = 0.1E-07   stopping-criterion for ELM
   LREAL  =      F    real-space projection
   NLSPLINE    = F    spline interpolate recip. space projectors
   LCOMPAT=      F    compatible to vasp.4.4
   GGA_COMPAT  = T    GGA compatible to vasp.4.4-vasp.4.6
   LMAXPAW     = -100 max onsite density
   LMAXMIX     =    4 max onsite mixed and CHGCAR
   VOSKOWN=      0    Vosko Wilk Nusair interpolation
   ROPT   =    0.00000   0.00000
 Ionic relaxation
   EDIFFG = 0.1E-06   stopping-criterion for IOM
   NSW    =      0    number of steps for IOM
   NBLOCK =      1;   KBLOCK =      1    inner block; outer block 
   IBRION =     -1    ionic relax: 0-MD 1-quasi-New 2-CG
   NFREE  =      0    steps in history (QN), initial steepest desc. (CG)
   ISIF   =      2    stress and relaxation
   IWAVPR =     10    prediction:  0-non 1-charg 2-wave 3-comb
   ISYM   =      2    0-nonsym 1-usesym 2-fastsym
   LCORR  =      T    Harris-Foulkes like correction to forces

   POTIM  = 0.5000    time-step for ionic-motion
   TEIN   =    0.0    initial temperature
   TEBEG  =    0.0;   TEEND  =   0.0 temperature during run
   SMASS  =  -3.00    Nose mass-parameter (am)
   estimated Nose-frequenzy (Omega)   =  0.10E-29 period in steps = 0.13E+47 mass=  -0.316E-27a.u.
   SCALEE = 1.0000    scale energy and forces
   NPACO  =    256;   APACO  = 10.0  distance and # of slots for P.C.
   PSTRESS=    0.0 pullay stress

  Mass of Ions in am
   POMASS = 195.08 78.96
  Ionic Valenz
   ZVAL   =  10.00  6.00
  Atomic Wigner-Seitz radii
   RWIGS  =  -1.00 -1.00
  virtual crystal weights 
   VCA    =   1.00  1.00
   NELECT =      22.0000    total number of electrons
   NUPDOWN=      -1.0000    fix difference up-down

 DOS related values:
   EMIN   =  10.00;   EMAX   =-10.00  energy-range for DOS
   EFERMI =   0.00;   METHOD = LEGACY      
   ISMEAR =     0;   SIGMA  =   0.05  broadening in eV -4-tet -1-fermi 0-gaus

 Electronic relaxation 2 (details)
   IALGO  =     38    algorithm
   LDIAG  =      T    sub-space diagonalisation (order eigenvalues)
   LSUBROT=      F    optimize rotation matrix (better conditioning)
   TURBO    =      0    0=normal 1=particle mesh
   IRESTART =      0    0=no restart 2=restart with 2 vectors
   NREBOOT  =      0    no. of reboots
   NMIN     =      0    reboot dimension
   EREF     =   0.00    reference energy to select bands
   IMIX   =      4    mixing-type and parameters
     AMIX     =   0.40;   BMIX     =  1.00
     AMIX_MAG =   1.60;   BMIX_MAG =  1.00
     AMIN     =   0.10
     WC   =   100.;   INIMIX=   1;  MIXPRE=   1;  MAXMIX= -45

 Intra band minimization:
   WEIMIN = 0.0000     energy-eigenvalue tresh-hold
   EBREAK =  0.16E-09  absolut break condition
   DEPER  =   0.30     relativ break condition  

   TIME   =   0.40     timestep for ELM

  volume/ion in A,a.u.               =      81.42       549.45
  Fermi-wavevector in a.u.,A,eV,Ry     =   0.733835  1.386746  7.326915  0.538513
  Thomas-Fermi vector in A             =   1.826640

 Write flags
   LWAVE        =      F    write WAVECAR
   LDOWNSAMPLE  =      F    k-point downsampling of WAVECAR
   LCHARG       =      T    write CHGCAR
   LVTOT        =      F    write LOCPOT, total local potential
   LVHAR        =      F    write LOCPOT, Hartree potential only
   LELF         =      F    write electronic localiz. function (ELF)
   LORBIT       =     11    0 simple, 1 ext, 2 COOP (PROOUT), +10 PAW based schemes


 Dipole corrections
   LMONO  =      F    monopole corrections only (constant potential shift)
   LDIPOL =      F    correct potential (dipole corrections)
   IDIPOL =      0    1-x, 2-y, 3-z, 4-all directions 
   EPSILON=  1.0000000 bulk dielectric constant

 LDA+U is selected, type is set to LDAUTYPE =  2
   angular momentum for each species LDAUL =     2   -1
   U (eV)           for each species LDAUU =   3.0  0.0
   J (eV)           for each species LDAUJ =   0.0  0.0
 Exchange correlation treatment:
   GGA     =    --    GGA type
   LEXCH   =     8    internal setting for exchange type
   LIBXC   =     F    Libxc                    
   VOSKOWN =     0    Vosko Wilk Nusair interpolation
   LHFCALC =     F    Hartree Fock is set to
   LHFONE  =     F    Hartree Fock one center treatment
   AEXX    =    0.0000 exact exchange contribution

 Linear response parameters
   LEPSILON=     F    determine dielectric tensor
   LRPA    =     F    only Hartree local field effects (RPA)
   LNABLA  =     F    use nabla operator in PAW spheres
   LVEL    =     F    velocity operator in full k-point grid
   CSHIFT  =0.1000    complex shift for real part using Kramers Kronig
   OMEGAMAX=  -1.0    maximum frequency
   DEG_THRESHOLD= 0.2000000E-02 threshold for treating states as degnerate
   RTIME   =   -0.100 relaxation time in fs
  (WPLASMAI=    0.000 imaginary part of plasma frequency in eV, 0.658/RTIME)
   DFIELD  = 0.0000000 0.0000000 0.0000000 field for delta impulse in time

  Optional k-point grid parameters
   LKPOINTS_OPT  =     F    use optional k-point grid
   KPOINTS_OPT_MODE=     1    mode for optional k-point grid

 Orbital magnetization related:
   ORBITALMAG=     F  switch on orbital magnetization
   LCHIMAG   =     F  perturbation theory with respect to B field
   DQ        =  0.001000  dq finite difference perturbation B field
   LLRAUG    =     F  two centre corrections for induced B field
   LBONE     =     F  B-component reconstruction in AE one-centre
   LVGVCALC  =     T  calculate vGv susceptibility
   LVGVAPPL  =     F  apply vGv susceptibility instead of pGv for G=0

 Random number generation:
   RANDOM_GENERATOR = DEFAULT
   PCG_SEED         = not used


--------------------------------------------------------------------------------------------------------


 Static calculation
 charge density and potential remain constant during run
 non-spin polarized calculation
 Variant of blocked Davidson
 Davidson routine will perform the subspace rotation
 perform sub-space diagonalisation
    after iterative eigenvector-optimisation
 no mixing
 using additional bands            5
 reciprocal scheme for non local part
 use partial core corrections
 calculate Harris-corrections to forces   (improved forces if not selfconsistent)
 use gradient corrections 
 WARNING: stress and forces are not correct
  (second derivative of E(xc) not defined)
 use of overlap-Matrix (Vanderbilt PP)
 Gauss-broadening in eV      SIGMA  =   0.05


--------------------------------------------------------------------------------------------------------


  energy-cutoff  :      600.00
  volume of cell :      244.26
      direct lattice vectors                 reciprocal lattice vectors
     3.721134027  0.000000000  0.000000000     0.268735281  0.155154387 -0.000000000
    -1.860567013  3.222596598  0.000000000     0.000000000  0.310308774  0.000000000
     0.000000000  0.000000000 20.369085854     0.000000000 -0.000000000  0.049094005

  length of vectors
     3.721134027  3.721134027 20.369085854     0.310308774  0.310308774  0.049094005



 k-points in units of 2pi/SCALE and weight: HEX (hexagonal) G-M-K-G                 
   0.00000000  0.00000000  0.00000000       0.003
   0.00075276  0.00130382  0.00000000       0.003
   0.00150552  0.00260764  0.00000000       0.003
   0.00225828  0.00391146  0.00000000       0.003
   0.00301104  0.00521527  0.00000000       0.003
   0.00376380  0.00651909  0.00000000       0.003
   0.00451656  0.00782291  0.00000000       0.003
   0.00526932  0.00912673  0.00000000       0.003
   0.00602208  0.01043055  0.00000000       0.003
   0.00677484  0.01173437  0.00000000       0.003
   0.00752760  0.01303818  0.00000000       0.003
   0.00828036  0.01434200  0.00000000       0.003
   0.00903312  0.01564582  0.00000000       0.003
   0.00978588  0.01694964  0.00000000       0.003
   0.01053864  0.01825346  0.00000000       0.003
   0.01129140  0.01955728  0.00000000       0.003
   0.01204416  0.02086109  0.00000000       0.003
   0.01279692  0.02216491  0.00000000       0.003
   0.01354968  0.02346873  0.00000000       0.003
   0.01430244  0.02477255  0.00000000       0.003
   0.01505520  0.02607637  0.00000000       0.003
   0.01580796  0.02738019  0.00000000       0.003
   0.01656072  0.02868400  0.00000000       0.003
   0.01731348  0.02998782  0.00000000       0.003
   0.01806624  0.03129164  0.00000000       0.003
   0.01881900  0.03259546  0.00000000       0.003
   0.01957176  0.03389928  0.00000000       0.003
   0.02032452  0.03520310  0.00000000       0.003
   0.02107728  0.03650691  0.00000000       0.003
   0.02183004  0.03781073  0.00000000       0.003
   0.02258280  0.03911455  0.00000000       0.003
   0.02333556  0.04041837  0.00000000       0.003
   0.02408832  0.04172219  0.00000000       0.003
   0.02484108  0.04302601  0.00000000       0.003
   0.02559384  0.04432982  0.00000000       0.003
   0.02634660  0.04563364  0.00000000       0.003
   0.02709936  0.04693746  0.00000000       0.003
   0.02785212  0.04824128  0.00000000       0.003
   0.02860488  0.04954510  0.00000000       0.003
   0.02935764  0.05084892  0.00000000       0.003
   0.03011040  0.05215273  0.00000000       0.003
   0.03086316  0.05345655  0.00000000       0.003
   0.03161592  0.05476037  0.00000000       0.003
   0.03236868  0.05606419  0.00000000       0.003
   0.03312143  0.05736801  0.00000000       0.003
   0.03387419  0.05867183  0.00000000       0.003
   0.03462695  0.05997564  0.00000000       0.003
   0.03537971  0.06127946  0.00000000       0.003
   0.03613247  0.06258328  0.00000000       0.003
   0.03688523  0.06388710  0.00000000       0.003
   0.03763799  0.06519092  0.00000000       0.003
   0.03839075  0.06649474  0.00000000       0.003
   0.03914351  0.06779856  0.00000000       0.003
   0.03989627  0.06910237  0.00000000       0.003
   0.04064903  0.07040619  0.00000000       0.003
   0.04140179  0.07171001  0.00000000       0.003
   0.04215455  0.07301383  0.00000000       0.003
   0.04290731  0.07431765  0.00000000       0.003
   0.04366007  0.07562147  0.00000000       0.003
   0.04441283  0.07692528  0.00000000       0.003
   0.04516559  0.07822910  0.00000000       0.003
   0.04591835  0.07953292  0.00000000       0.003
   0.04667111  0.08083674  0.00000000       0.003
   0.04742387  0.08214056  0.00000000       0.003
   0.04817663  0.08344438  0.00000000       0.003
   0.04892939  0.08474819  0.00000000       0.003
   0.04968215  0.08605201  0.00000000       0.003
   0.05043491  0.08735583  0.00000000       0.003
   0.05118767  0.08865965  0.00000000       0.003
   0.05194043  0.08996347  0.00000000       0.003
   0.05269319  0.09126729  0.00000000       0.003
   0.05344595  0.09257110  0.00000000       0.003
   0.05419871  0.09387492  0.00000000       0.003
   0.05495147  0.09517874  0.00000000       0.003
   0.05570423  0.09648256  0.00000000       0.003
   0.05645699  0.09778638  0.00000000       0.003
   0.05720975  0.09909020  0.00000000       0.003
   0.05796251  0.10039401  0.00000000       0.003
   0.05871527  0.10169783  0.00000000       0.003
   0.05946803  0.10300165  0.00000000       0.003
   0.06022079  0.10430547  0.00000000       0.003
   0.06097355  0.10560929  0.00000000       0.003
   0.06172631  0.10691311  0.00000000       0.003
   0.06247907  0.10821692  0.00000000       0.003
   0.06323183  0.10952074  0.00000000       0.003
   0.06398459  0.11082456  0.00000000       0.003
   0.06473735  0.11212838  0.00000000       0.003
   0.06549011  0.11343220  0.00000000       0.003
   0.06624287  0.11473602  0.00000000       0.003
   0.06699563  0.11603983  0.00000000       0.003
   0.06774839  0.11734365  0.00000000       0.003
   0.06850115  0.11864747  0.00000000       0.003
   0.06925391  0.11995129  0.00000000       0.003
   0.07000667  0.12125511  0.00000000       0.003
   0.07075943  0.12255893  0.00000000       0.003
   0.07151219  0.12386274  0.00000000       0.003
   0.07226495  0.12516656  0.00000000       0.003
   0.07301771  0.12647038  0.00000000       0.003
   0.07377047  0.12777420  0.00000000       0.003
   0.07452323  0.12907802  0.00000000       0.003
   0.07527599  0.13038184  0.00000000       0.003
   0.07602875  0.13168565  0.00000000       0.003
   0.07678151  0.13298947  0.00000000       0.003
   0.07753427  0.13429329  0.00000000       0.003
   0.07828703  0.13559711  0.00000000       0.003
   0.07903979  0.13690093  0.00000000       0.003
   0.07979255  0.13820475  0.00000000       0.003
   0.08054531  0.13950857  0.00000000       0.003
   0.08129807  0.14081238  0.00000000       0.003
   0.08205083  0.14211620  0.00000000       0.003
   0.08280359  0.14342002  0.00000000       0.003
   0.08355635  0.14472384  0.00000000       0.003
   0.08430911  0.14602766  0.00000000       0.003
   0.08506187  0.14733148  0.00000000       0.003
   0.08581463  0.14863529  0.00000000       0.003
   0.08656739  0.14993911  0.00000000       0.003
   0.08732015  0.15124293  0.00000000       0.003
   0.08807291  0.15254675  0.00000000       0.003
   0.08882567  0.15385057  0.00000000       0.003
   0.08957843  0.15515439  0.00000000       0.003
   0.08957843  0.15515439  0.00000000       0.003
   0.08995481  0.15450248  0.00000000       0.003
   0.09033119  0.15385057  0.00000000       0.003
   0.09070757  0.15319866  0.00000000       0.003
   0.09108395  0.15254675  0.00000000       0.003
   0.09146033  0.15189484  0.00000000       0.003
   0.09183671  0.15124293  0.00000000       0.003
   0.09221309  0.15059102  0.00000000       0.003
   0.09258947  0.14993911  0.00000000       0.003
   0.09296585  0.14928720  0.00000000       0.003
   0.09334223  0.14863529  0.00000000       0.003
   0.09371861  0.14798338  0.00000000       0.003
   0.09409499  0.14733148  0.00000000       0.003
   0.09447137  0.14667957  0.00000000       0.003
   0.09484775  0.14602766  0.00000000       0.003
   0.09522413  0.14537575  0.00000000       0.003
   0.09560051  0.14472384  0.00000000       0.003
   0.09597689  0.14407193  0.00000000       0.003
   0.09635327  0.14342002  0.00000000       0.003
   0.09672965  0.14276811  0.00000000       0.003
   0.09710603  0.14211620  0.00000000       0.003
   0.09748241  0.14146429  0.00000000       0.003
   0.09785879  0.14081238  0.00000000       0.003
   0.09823517  0.14016047  0.00000000       0.003
   0.09861155  0.13950857  0.00000000       0.003
   0.09898793  0.13885666  0.00000000       0.003
   0.09936431  0.13820475  0.00000000       0.003
   0.09974069  0.13755284  0.00000000       0.003
   0.10011706  0.13690093  0.00000000       0.003
   0.10049344  0.13624902  0.00000000       0.003
   0.10086982  0.13559711  0.00000000       0.003
   0.10124620  0.13494520  0.00000000       0.003
   0.10162258  0.13429329  0.00000000       0.003
   0.10199896  0.13364138  0.00000000       0.003
   0.10237534  0.13298947  0.00000000       0.003
   0.10275172  0.13233756  0.00000000       0.003
   0.10312810  0.13168566  0.00000000       0.003
   0.10350448  0.13103375  0.00000000       0.003
   0.10388086  0.13038184  0.00000000       0.003
   0.10425724  0.12972993  0.00000000       0.003
   0.10463362  0.12907802  0.00000000       0.003
   0.10501000  0.12842611  0.00000000       0.003
   0.10538638  0.12777420  0.00000000       0.003
   0.10576276  0.12712229  0.00000000       0.003
   0.10613914  0.12647038  0.00000000       0.003
   0.10651552  0.12581847  0.00000000       0.003
   0.10689190  0.12516656  0.00000000       0.003
   0.10726828  0.12451465  0.00000000       0.003
   0.10764466  0.12386275  0.00000000       0.003
   0.10802104  0.12321084  0.00000000       0.003
   0.10839742  0.12255893  0.00000000       0.003
   0.10877380  0.12190702  0.00000000       0.003
   0.10915018  0.12125511  0.00000000       0.003
   0.10952656  0.12060320  0.00000000       0.003
   0.10990294  0.11995129  0.00000000       0.003
   0.11027932  0.11929938  0.00000000       0.003
   0.11065570  0.11864747  0.00000000       0.003
   0.11103208  0.11799556  0.00000000       0.003
   0.11140846  0.11734365  0.00000000       0.003
   0.11178484  0.11669174  0.00000000       0.003
   0.11216122  0.11603983  0.00000000       0.003
   0.11253760  0.11538793  0.00000000       0.003
   0.11291398  0.11473602  0.00000000       0.003
   0.11329036  0.11408411  0.00000000       0.003
   0.11366674  0.11343220  0.00000000       0.003
   0.11404312  0.11278029  0.00000000       0.003
   0.11441950  0.11212838  0.00000000       0.003
   0.11479588  0.11147647  0.00000000       0.003
   0.11517226  0.11082456  0.00000000       0.003
   0.11554864  0.11017265  0.00000000       0.003
   0.11592502  0.10952074  0.00000000       0.003
   0.11630140  0.10886883  0.00000000       0.003
   0.11667778  0.10821692  0.00000000       0.003
   0.11705416  0.10756502  0.00000000       0.003
   0.11743054  0.10691311  0.00000000       0.003
   0.11780692  0.10626120  0.00000000       0.003
   0.11818330  0.10560929  0.00000000       0.003
   0.11855968  0.10495738  0.00000000       0.003
   0.11893606  0.10430547  0.00000000       0.003
   0.11931244  0.10365356  0.00000000       0.003
   0.11968882  0.10300165  0.00000000       0.003
   0.12006520  0.10234974  0.00000000       0.003
   0.12044158  0.10169783  0.00000000       0.003
   0.12081796  0.10104592  0.00000000       0.003
   0.12119434  0.10039401  0.00000000       0.003
   0.12157072  0.09974211  0.00000000       0.003
   0.12194710  0.09909020  0.00000000       0.003
   0.12232348  0.09843829  0.00000000       0.003
   0.12269986  0.09778638  0.00000000       0.003
   0.12307624  0.09713447  0.00000000       0.003
   0.12345262  0.09648256  0.00000000       0.003
   0.12382900  0.09583065  0.00000000       0.003
   0.12420538  0.09517874  0.00000000       0.003
   0.12458176  0.09452683  0.00000000       0.003
   0.12495814  0.09387492  0.00000000       0.003
   0.12533452  0.09322301  0.00000000       0.003
   0.12571090  0.09257110  0.00000000       0.003
   0.12608728  0.09191920  0.00000000       0.003
   0.12646366  0.09126729  0.00000000       0.003
   0.12684004  0.09061538  0.00000000       0.003
   0.12721642  0.08996347  0.00000000       0.003
   0.12759280  0.08931156  0.00000000       0.003
   0.12796918  0.08865965  0.00000000       0.003
   0.12834556  0.08800774  0.00000000       0.003
   0.12872194  0.08735583  0.00000000       0.003
   0.12909832  0.08670392  0.00000000       0.003
   0.12947470  0.08605201  0.00000000       0.003
   0.12985108  0.08540010  0.00000000       0.003
   0.13022746  0.08474819  0.00000000       0.003
   0.13060384  0.08409629  0.00000000       0.003
   0.13098022  0.08344438  0.00000000       0.003
   0.13135660  0.08279247  0.00000000       0.003
   0.13173298  0.08214056  0.00000000       0.003
   0.13210936  0.08148865  0.00000000       0.003
   0.13248574  0.08083674  0.00000000       0.003
   0.13286212  0.08018483  0.00000000       0.003
   0.13323850  0.07953292  0.00000000       0.003
   0.13361488  0.07888101  0.00000000       0.003
   0.13399126  0.07822910  0.00000000       0.003
   0.13436764  0.07757719  0.00000000       0.003
   0.13436764  0.07757719  0.00000000       0.003
   0.13323850  0.07692528  0.00000000       0.003
   0.13210936  0.07627338  0.00000000       0.003
   0.13098022  0.07562147  0.00000000       0.003
   0.12985108  0.07496956  0.00000000       0.003
   0.12872194  0.07431765  0.00000000       0.003
   0.12759280  0.07366574  0.00000000       0.003
   0.12646366  0.07301383  0.00000000       0.003
   0.12533452  0.07236192  0.00000000       0.003
   0.12420538  0.07171001  0.00000000       0.003
   0.12307624  0.07105810  0.00000000       0.003
   0.12194710  0.07040619  0.00000000       0.003
   0.12081796  0.06975428  0.00000000       0.003
   0.11968882  0.06910237  0.00000000       0.003
   0.11855968  0.06845046  0.00000000       0.003
   0.11743054  0.06779856  0.00000000       0.003
   0.11630140  0.06714665  0.00000000       0.003
   0.11517226  0.06649474  0.00000000       0.003
   0.11404312  0.06584283  0.00000000       0.003
   0.11291398  0.06519092  0.00000000       0.003
   0.11178484  0.06453901  0.00000000       0.003
   0.11065570  0.06388710  0.00000000       0.003
   0.10952656  0.06323519  0.00000000       0.003
   0.10839742  0.06258328  0.00000000       0.003
   0.10726828  0.06193137  0.00000000       0.003
   0.10613914  0.06127946  0.00000000       0.003
   0.10501000  0.06062755  0.00000000       0.003
   0.10388087  0.05997565  0.00000000       0.003
   0.10275173  0.05932374  0.00000000       0.003
   0.10162259  0.05867183  0.00000000       0.003
   0.10049345  0.05801992  0.00000000       0.003
   0.09936431  0.05736801  0.00000000       0.003
   0.09823517  0.05671610  0.00000000       0.003
   0.09710603  0.05606419  0.00000000       0.003
   0.09597689  0.05541228  0.00000000       0.003
   0.09484775  0.05476037  0.00000000       0.003
   0.09371861  0.05410846  0.00000000       0.003
   0.09258947  0.05345655  0.00000000       0.003
   0.09146033  0.05280464  0.00000000       0.003
   0.09033119  0.05215274  0.00000000       0.003
   0.08920205  0.05150083  0.00000000       0.003
   0.08807291  0.05084892  0.00000000       0.003
   0.08694377  0.05019701  0.00000000       0.003
   0.08581463  0.04954510  0.00000000       0.003
   0.08468549  0.04889319  0.00000000       0.003
   0.08355635  0.04824128  0.00000000       0.003
   0.08242721  0.04758937  0.00000000       0.003
   0.08129807  0.04693746  0.00000000       0.003
   0.08016893  0.04628555  0.00000000       0.003
   0.07903979  0.04563364  0.00000000       0.003
   0.07791065  0.04498173  0.00000000       0.003
   0.07678151  0.04432982  0.00000000       0.003
   0.07565237  0.04367792  0.00000000       0.003
   0.07452323  0.04302601  0.00000000       0.003
   0.07339409  0.04237410  0.00000000       0.003
   0.07226495  0.04172219  0.00000000       0.003
   0.07113581  0.04107028  0.00000000       0.003
   0.07000667  0.04041837  0.00000000       0.003
   0.06887753  0.03976646  0.00000000       0.003
   0.06774839  0.03911455  0.00000000       0.003
   0.06661925  0.03846264  0.00000000       0.003
   0.06549011  0.03781073  0.00000000       0.003
   0.06436097  0.03715882  0.00000000       0.003
   0.06323183  0.03650691  0.00000000       0.003
   0.06210269  0.03585501  0.00000000       0.003
   0.06097355  0.03520310  0.00000000       0.003
   0.05984441  0.03455119  0.00000000       0.003
   0.05871527  0.03389928  0.00000000       0.003
   0.05758613  0.03324737  0.00000000       0.003
   0.05645699  0.03259546  0.00000000       0.003
   0.05532785  0.03194355  0.00000000       0.003
   0.05419871  0.03129164  0.00000000       0.003
   0.05306957  0.03063973  0.00000000       0.003
   0.05194043  0.02998782  0.00000000       0.003
   0.05081129  0.02933591  0.00000000       0.003
   0.04968215  0.02868400  0.00000000       0.003
   0.04855301  0.02803210  0.00000000       0.003
   0.04742387  0.02738019  0.00000000       0.003
   0.04629473  0.02672828  0.00000000       0.003
   0.04516559  0.02607637  0.00000000       0.003
   0.04403645  0.02542446  0.00000000       0.003
   0.04290731  0.02477255  0.00000000       0.003
   0.04177817  0.02412064  0.00000000       0.003
   0.04064903  0.02346873  0.00000000       0.003
   0.03951989  0.02281682  0.00000000       0.003
   0.03839075  0.02216491  0.00000000       0.003
   0.03726161  0.02151300  0.00000000       0.003
   0.03613247  0.02086109  0.00000000       0.003
   0.03500333  0.02020918  0.00000000       0.003
   0.03387420  0.01955728  0.00000000       0.003
   0.03274506  0.01890537  0.00000000       0.003
   0.03161592  0.01825346  0.00000000       0.003
   0.03048678  0.01760155  0.00000000       0.003
   0.02935764  0.01694964  0.00000000       0.003
   0.02822850  0.01629773  0.00000000       0.003
   0.02709936  0.01564582  0.00000000       0.003
   0.02597022  0.01499391  0.00000000       0.003
   0.02484108  0.01434200  0.00000000       0.003
   0.02371194  0.01369009  0.00000000       0.003
   0.02258280  0.01303818  0.00000000       0.003
   0.02145366  0.01238627  0.00000000       0.003
   0.02032452  0.01173437  0.00000000       0.003
   0.01919538  0.01108246  0.00000000       0.003
   0.01806624  0.01043055  0.00000000       0.003
   0.01693710  0.00977864  0.00000000       0.003
   0.01580796  0.00912673  0.00000000       0.003
   0.01467882  0.00847482  0.00000000       0.003
   0.01354968  0.00782291  0.00000000       0.003
   0.01242054  0.00717100  0.00000000       0.003
   0.01129140  0.00651909  0.00000000       0.003
   0.01016226  0.00586718  0.00000000       0.003
   0.00903312  0.00521527  0.00000000       0.003
   0.00790398  0.00456336  0.00000000       0.003
   0.00677484  0.00391146  0.00000000       0.003
   0.00564570  0.00325955  0.00000000       0.003
   0.00451656  0.00260764  0.00000000       0.003
   0.00338742  0.00195573  0.00000000       0.003
   0.00225828  0.00130382  0.00000000       0.003
   0.00112914  0.00065191  0.00000000       0.003
   0.00000000  0.00000000  0.00000000       0.003

 k-points in reciprocal lattice and weights: HEX (hexagonal) G-M-K-G                 
   0.00000000  0.00000000  0.00000000       0.003
   0.00280112  0.00280112  0.00000000       0.003
   0.00560224  0.00560224  0.00000000       0.003
   0.00840336  0.00840336  0.00000000       0.003
   0.01120448  0.01120448  0.00000000       0.003
   0.01400560  0.01400560  0.00000000       0.003
   0.01680672  0.01680672  0.00000000       0.003
   0.01960784  0.01960784  0.00000000       0.003
   0.02240896  0.02240896  0.00000000       0.003
   0.02521008  0.02521008  0.00000000       0.003
   0.02801120  0.02801120  0.00000000       0.003
   0.03081232  0.03081232  0.00000000       0.003
   0.03361345  0.03361345  0.00000000       0.003
   0.03641457  0.03641457  0.00000000       0.003
   0.03921569  0.03921569  0.00000000       0.003
   0.04201681  0.04201681  0.00000000       0.003
   0.04481793  0.04481793  0.00000000       0.003
   0.04761905  0.04761905  0.00000000       0.003
   0.05042017  0.05042017  0.00000000       0.003
   0.05322129  0.05322129  0.00000000       0.003
   0.05602241  0.05602241  0.00000000       0.003
   0.05882353  0.05882353  0.00000000       0.003
   0.06162465  0.06162465  0.00000000       0.003
   0.06442577  0.06442577  0.00000000       0.003
   0.06722689  0.06722689  0.00000000       0.003
   0.07002801  0.07002801  0.00000000       0.003
   0.07282913  0.07282913  0.00000000       0.003
   0.07563025  0.07563025  0.00000000       0.003
   0.07843137  0.07843137  0.00000000       0.003
   0.08123249  0.08123249  0.00000000       0.003
   0.08403361  0.08403361  0.00000000       0.003
   0.08683473  0.08683473  0.00000000       0.003
   0.08963585  0.08963585  0.00000000       0.003
   0.09243697  0.09243697  0.00000000       0.003
   0.09523809  0.09523809  0.00000000       0.003
   0.09803921  0.09803921  0.00000000       0.003
   0.10084034  0.10084034  0.00000000       0.003
   0.10364146  0.10364146  0.00000000       0.003
   0.10644258  0.10644258  0.00000000       0.003
   0.10924370  0.10924370  0.00000000       0.003
   0.11204482  0.11204482  0.00000000       0.003
   0.11484594  0.11484594  0.00000000       0.003
   0.11764706  0.11764706  0.00000000       0.003
   0.12044818  0.12044818  0.00000000       0.003
   0.12324930  0.12324930  0.00000000       0.003
   0.12605042  0.12605042  0.00000000       0.003
   0.12885154  0.12885154  0.00000000       0.003
   0.13165266  0.13165266  0.00000000       0.003
   0.13445378  0.13445378  0.00000000       0.003
   0.13725490  0.13725490  0.00000000       0.003
   0.14005602  0.14005602  0.00000000       0.003
   0.14285714  0.14285714  0.00000000       0.003
   0.14565826  0.14565826  0.00000000       0.003
   0.14845938  0.14845938  0.00000000       0.003
   0.15126050  0.15126050  0.00000000       0.003
   0.15406162  0.15406162  0.00000000       0.003
   0.15686274  0.15686274  0.00000000       0.003
   0.15966386  0.15966386  0.00000000       0.003
   0.16246498  0.16246498  0.00000000       0.003
   0.16526610  0.16526610  0.00000000       0.003
   0.16806723  0.16806723  0.00000000       0.003
   0.17086835  0.17086835  0.00000000       0.003
   0.17366947  0.17366947  0.00000000       0.003
   0.17647059  0.17647059  0.00000000       0.003
   0.17927171  0.17927171  0.00000000       0.003
   0.18207283  0.18207283  0.00000000       0.003
   0.18487395  0.18487395  0.00000000       0.003
   0.18767507  0.18767507  0.00000000       0.003
   0.19047619  0.19047619  0.00000000       0.003
   0.19327731  0.19327731  0.00000000       0.003
   0.19607843  0.19607843  0.00000000       0.003
   0.19887955  0.19887955  0.00000000       0.003
   0.20168067  0.20168067  0.00000000       0.003
   0.20448179  0.20448179  0.00000000       0.003
[...]
      4      -8.2448      2.00000
      5      -8.2150      2.00000
      6      -6.5056      2.00000
      7      -6.5007      2.00000
      8      -4.6486      2.00000
      9      -3.4760      2.00000
     10      -2.9622      2.00000
     11      -2.8990      2.00000
     12      -0.2575      0.00000
     13      -0.0757      0.00000
     14       1.7335      0.00000
     15       2.3922      0.00000
     16       2.9053      0.00000

 k-point   348 :       0.0504    0.0000    0.0000
  band No.  band energies     occupation 
      1     -16.8661      2.00000
      2     -15.1335      2.00000
      3      -8.3385      2.00000
      4      -8.2441      2.00000
      5      -8.2185      2.00000
      6      -6.5017      2.00000
      7      -6.4976      2.00000
      8      -4.6369      2.00000
      9      -3.4841      2.00000
     10      -2.9524      2.00000
     11      -2.8977      2.00000
     12      -0.2261      0.00000
     13      -0.0690      0.00000
     14       1.7170      0.00000
     15       2.3847      0.00000
     16       2.8962      0.00000

 k-point   349 :       0.0462    0.0000    0.0000
  band No.  band energies     occupation 
      1     -16.8704      2.00000
      2     -15.1330      2.00000
      3      -8.3427      2.00000
      4      -8.2434      2.00000
      5      -8.2218      2.00000
      6      -6.4980      2.00000
      7      -6.4947      2.00000
      8      -4.6262      2.00000
      9      -3.4917      2.00000
     10      -2.9431      2.00000
     11      -2.8965      2.00000
     12      -0.1965      0.00000
     13      -0.0627      0.00000
     14       1.7016      0.00000
     15       2.3776      0.00000
     16       2.8895      0.00000

 k-point   350 :       0.0420    0.0000    0.0000
  band No.  band energies     occupation 
      1     -16.8744      2.00000
      2     -15.1326      2.00000
      3      -8.3465      2.00000
      4      -8.2427      2.00000
      5      -8.2248      2.00000
      6      -6.4947      2.00000
      7      -6.4921      2.00000
      8      -4.6163      2.00000
      9      -3.4987      2.00000
     10      -2.9344      2.00000
     11      -2.8954      2.00000
     12      -0.1689      0.00000
     13      -0.0569      0.00000
     14       1.6873      0.00000
     15       2.3710      0.00000
     16       2.8803      0.00000

 k-point   351 :       0.0378    0.0000    0.0000
  band No.  band energies     occupation 
      1     -16.8779      2.00000
      2     -15.1322      2.00000
      3      -8.3500      2.00000
      4      -8.2421      2.00000
      5      -8.2275      2.00000
      6      -6.4918      2.00000
      7      -6.4897      2.00000
      8      -4.6074      2.00000
      9      -3.5050      2.00000
     10      -2.9265      2.00000
     11      -2.8945      2.00000
     12      -0.1433      0.00000
     13      -0.0516      0.00000
     14       1.6742      0.00000
     15       2.3648      0.00000
     16       2.8732      0.00000

 k-point   352 :       0.0336    0.0000    0.0000
  band No.  band energies     occupation 
      1     -16.8812      2.00000
      2     -15.1319      2.00000
      3      -8.3532      2.00000
      4      -8.2415      2.00000
      5      -8.2299      2.00000
      6      -6.4891      2.00000
      7      -6.4875      2.00000
      8      -4.5994      2.00000
      9      -3.5107      2.00000
     10      -2.9192      2.00000
     11      -2.8937      2.00000
     12      -0.1200      0.00000
     13      -0.0468      0.00000
     14       1.6624      0.00000
     15       2.3592      0.00000
     16       2.8558      0.00000

 k-point   353 :       0.0294    0.0000    0.0000
  band No.  band energies     occupation 
      1     -16.8840      2.00000
      2     -15.1316      2.00000
      3      -8.3560      2.00000
      4      -8.2410      2.00000
      5      -8.2321      2.00000
      6      -6.4868      2.00000
      7      -6.4856      2.00000
      8      -4.5923      2.00000
      9      -3.5158      2.00000
     10      -2.9127      2.00000
     11      -2.8930      2.00000
     12      -0.0991      0.00000
     13      -0.0425      0.00000
     14       1.6519      0.00000
     15       2.3540      0.00000
     16       2.8224      0.00000

 k-point   354 :       0.0252    0.0000    0.0000
  band No.  band energies     occupation 
      1     -16.8865      2.00000
      2     -15.1313      2.00000
      3      -8.3584      2.00000
      4      -8.2405      2.00000
      5      -8.2340      2.00000
      6      -6.4848      2.00000
      7      -6.4839      2.00000
      8      -4.5861      2.00000
      9      -3.5203      2.00000
     10      -2.9071      2.00000
     11      -2.8924      2.00000
     12      -0.0807      0.00000
     13      -0.0387      0.00000
     14       1.6427      0.00000
     15       2.3495      0.00000
     16       2.8046      0.00000

 k-point   355 :       0.0210    0.0000    0.0000
  band No.  band energies     occupation 
      1     -16.8885      2.00000
      2     -15.1311      2.00000
      3      -8.3604      2.00000
      4      -8.2401      2.00000
      5      -8.2355      2.00000
      6      -6.4831      2.00000
      7      -6.4825      2.00000
      8      -4.5809      2.00000
      9      -3.5240      2.00000
     10      -2.9022      2.00000
     11      -2.8919      2.00000
     12      -0.0649      0.00000
     13      -0.0355      0.00000
     14       1.6349      0.00000
     15       2.3455      0.00000
     16       2.8366      0.00000

 k-point   356 :       0.0168    0.0000    0.0000
  band No.  band energies     occupation 
      1     -16.8902      2.00000
      2     -15.1309      2.00000
      3      -8.3621      2.00000
      4      -8.2398      2.00000
      5      -8.2368      2.00000
      6      -6.4817      2.00000
      7      -6.4814      2.00000
      8      -4.5767      2.00000
      9      -3.5271      2.00000
     10      -2.8981      2.00000
     11      -2.8916      2.00000
     12      -0.0518      0.00000
     13      -0.0329      0.00000
     14       1.6285      0.00000
     15       2.3422      0.00000
     16       2.7842      0.00000

 k-point   357 :       0.0126    0.0000    0.0000
  band No.  band energies     occupation 
      1     -16.8916      2.00000
      2     -15.1308      2.00000
      3      -8.3634      2.00000
      4      -8.2395      2.00000
      5      -8.2378      2.00000
      6      -6.4806      2.00000
      7      -6.4804      2.00000
      8      -4.5733      2.00000
      9      -3.5295      2.00000
     10      -2.8950      2.00000
     11      -2.8913      2.00000
     12      -0.0415      0.00000
     13      -0.0308      0.00000
     14       1.6235      0.00000
     15       2.3395      0.00000
     16       2.7691      0.00000

 k-point   358 :       0.0084    0.0000    0.0000
  band No.  band energies     occupation 
      1     -16.8925      2.00000
      2     -15.1307      2.00000
      3      -8.3644      2.00000
      4      -8.2393      2.00000
      5      -8.2386      2.00000
      6      -6.4799      2.00000
      7      -6.4798      2.00000
      8      -4.5709      2.00000
      9      -3.5312      2.00000
     10      -2.8927      2.00000
     11      -2.8911      2.00000
     12      -0.0341      0.00000
     13      -0.0293      0.00000
     14       1.6199      0.00000
     15       2.3376      0.00000
     16       2.7631      0.00000

 k-point   359 :       0.0042    0.0000    0.0000
  band No.  band energies     occupation 
      1     -16.8931      2.00000
      2     -15.1306      2.00000
      3      -8.3649      2.00000
      4      -8.2392      2.00000
      5      -8.2390      2.00000
      6      -6.4794      2.00000
      7      -6.4794      2.00000
      8      -4.5695      2.00000
      9      -3.5323      2.00000
     10      -2.8914      2.00000
     11      -2.8909      2.00000
     12      -0.0297      0.00000
     13      -0.0285      0.00000
     14       1.6177      0.00000
     15       2.3365      0.00000
     16       2.7576      0.00000

 k-point   360 :       0.0000    0.0000    0.0000
  band No.  band energies     occupation 
      1     -16.8933      2.00000
      2     -15.1306      2.00000
      3      -8.3651      2.00000
      4      -8.2391      2.00000
      5      -8.2391      2.00000
      6      -6.4793      2.00000
      7      -6.4793      2.00000
      8      -4.5690      2.00000
      9      -3.5326      2.00000
     10      -2.8909      2.00000
     11      -2.8909      2.00000
     12      -0.0282      0.00000
     13      -0.0282      0.00000
     14       1.6170      0.00000
     15       2.3361      0.00000
     16       2.8402      0.00000


--------------------------------------------------------------------------------------------------------


 soft charge-density along one line, spin component           1
         0         1         2         3         4         5         6         7         8         9
 total charge-density along one line

 pseudopotential strength for first ion, spin component:           1
 -8.570   0.000  -0.000   0.000  -0.000   0.000  -0.255   0.000  -0.000   0.000  -8.659   0.000  -0.000   0.000  -0.000   0.000
 -0.000   0.000  -8.395   0.000   0.000  -0.000   0.000  -0.000  -0.255  -0.000  -0.000   0.000  -8.479   0.000   0.000  -0.000
 -0.000   0.000   0.000  -0.000  -8.735   0.000  -0.000  -0.000   0.000   0.000  -0.000   0.000   0.000  -0.000  -8.830   0.000
 -0.255  -0.000   0.000  -0.000  -0.000  -0.000  -8.395   0.000  -0.000   0.000  -0.262  -0.000   0.000  -0.000  -0.000  -0.000
 -0.000   0.000  -0.255   0.000   0.000   0.000  -0.000   0.000  -8.570   0.000  -0.000   0.000  -0.262   0.000   0.000   0.000
 -8.659   0.000  -0.000   0.000  -0.000   0.000  -0.262   0.000  -0.000   0.000  -8.738   0.000  -0.000   0.000  -0.000   0.000
 -0.000   0.000  -8.479   0.000   0.000  -0.000   0.000  -0.000  -0.262  -0.000  -0.000   0.000  -8.553   0.000   0.000  -0.000
 -0.000   0.000   0.000  -0.000  -8.830   0.000  -0.000  -0.000   0.000   0.000  -0.000   0.000   0.000  -0.000  -8.917   0.000
 -0.262  -0.000   0.000  -0.000  -0.000  -0.000  -8.479   0.000  -0.000   0.000  -0.272  -0.000   0.000  -0.000  -0.000  -0.000
 -0.000   0.000  -0.262   0.000   0.000   0.000  -0.000   0.000  -8.659   0.000  -0.000   0.000  -0.272   0.000   0.000   0.000
 -0.000   0.000  -0.000   0.000  -0.010   0.000   0.000  -0.000   0.000   0.000  -0.000   0.000  -0.000   0.000  -0.010   0.000
 -0.000   0.000  -0.000   0.000  -0.014   0.000   0.000  -0.000   0.000   0.000  -0.000   0.000  -0.000   0.000  -0.014   0.000
  0.000  -0.000   0.000  -0.000   0.000   0.000   0.000   0.000  -0.000   0.000   0.000  -0.000   0.000  -0.000   0.000   0.000
  0.000   0.000  -0.000  -0.000   0.000  -0.000   0.000  -0.000  -0.000   0.000   0.000   0.000  -0.000  -0.000   0.000  -0.000
 -0.000  -0.000   0.000   0.000  -0.000   0.000   0.000  -0.000   0.000  -0.000  -0.000  -0.000   0.000   0.000  -0.000   0.000
  0.000  -0.000   0.000  -0.000   0.000   0.000   0.000   0.000  -0.000   0.000   0.000  -0.000   0.000  -0.000  -0.000   0.000
  0.000   0.000  -0.000  -0.000   0.000  -0.000   0.000  -0.000  -0.000   0.000   0.000   0.000  -0.000  -0.000   0.000  -0.000
 -0.000  -0.000   0.000   0.000  -0.000   0.000   0.000  -0.000  -0.000  -0.000  -0.000  -0.000   0.000   0.000  -0.000   0.000
 total augmentation occupancy for first ion, spin component:           1
  1.800   0.000   0.000   0.000   0.000   0.000   0.000   0.000   0.000   0.000   0.000   0.000   0.000   0.000   0.000   0.000
  0.000   1.800   0.000   0.000   0.000   0.000   0.000   0.000   0.000   0.000   0.000   0.000   0.000   0.000   0.000   0.000
  0.000   0.000   1.800   0.000   0.000   0.000   0.000   0.000   0.000   0.000   0.000   0.000   0.000   0.000   0.000   0.000
  0.000   0.000   0.000   1.800   0.000   0.000   0.000   0.000   0.000   0.000   0.000   0.000   0.000   0.000   0.000   0.000
  0.000   0.000   0.000   0.000   1.800   0.000   0.000   0.000   0.000   0.000   0.000   0.000   0.000   0.000   0.000   0.000
  0.000   0.000   0.000   0.000   0.000   0.000   0.000   0.000   0.000   0.000   0.000   0.000   0.000   0.000   0.000   0.000
  0.000   0.000   0.000   0.000   0.000   0.000   0.000   0.000   0.000   0.000   0.000   0.000   0.000   0.000   0.000   0.000
  0.000   0.000   0.000   0.000   0.000   0.000   0.000   0.000   0.000   0.000   0.000   0.000   0.000   0.000   0.000   0.000
  0.000   0.000   0.000   0.000   0.000   0.000   0.000   0.000   0.000   0.000   0.000   0.000   0.000   0.000   0.000   0.000
  0.000   0.000   0.000   0.000   0.000   0.000   0.000   0.000   0.000   0.000   0.000   0.000   0.000   0.000   0.000   0.000
  0.000   0.000   0.000   0.000   0.000   0.000   0.000   0.000   0.000   0.000   1.000   0.000   0.000   0.000   0.000   0.000
  0.000   0.000   0.000   0.000   0.000   0.000   0.000   0.000   0.000   0.000   0.000   0.000   0.000   0.000   0.000   0.000
  0.000   0.000   0.000   0.000   0.000   0.000   0.000   0.000   0.000   0.000   0.000   0.000   0.000   0.000   0.000   0.000
  0.000   0.000   0.000   0.000   0.000   0.000   0.000   0.000   0.000   0.000   0.000   0.000   0.000   0.000   0.000   0.000
  0.000   0.000   0.000   0.000   0.000   0.000   0.000   0.000   0.000   0.000   0.000   0.000   0.000   0.000   0.000   0.000
  0.000   0.000   0.000   0.000   0.000   0.000   0.000   0.000   0.000   0.000   0.000   0.000   0.000   0.000   0.000   0.000
  0.000   0.000   0.000   0.000   0.000   0.000   0.000   0.000   0.000   0.000   0.000   0.000   0.000   0.000   0.000   0.000
  0.000   0.000   0.000   0.000   0.000   0.000   0.000   0.000   0.000   0.000   0.000   0.000   0.000   0.000   0.000   0.000


------------------------ aborting loop because EDIFF is reached ----------------------------------------





 total charge

# of ion       s       p       d       tot
------------------------------------------
    1        0.655   0.659   8.200   9.514
    2        1.474   2.257   0.053   3.784
    3        1.474   2.257   0.053   3.784
--------------------------------------------------
tot          3.602   5.173   8.306  17.082

    CHARGE:  cpu time      0.6305: real time      0.6337
    FORLOC:  cpu time      0.0041: real time      0.0041
    FORNL :  cpu time      0.9396: real time      0.9438
    STRESS:  cpu time      3.7655: real time      3.7846
    FORCOR:  cpu time      0.0605: real time      0.0609
    FORHAR:  cpu time      0.0184: real time      0.0185
    OFIELD:  cpu time      0.0005: real time      0.0006

  FORCE on cell =-STRESS in cart. coord.  units (eV):
  Direction    XX          YY          ZZ          XY          YZ          ZX
  --------------------------------------------------------------------------------------
  Alpha Z    19.03113    19.03113    19.03113
  Ewald    3830.62683  3830.62683 -4694.36574    -0.00000    -0.00000     0.00000
  Hartree  4035.57316  4035.57316 -3939.90302    -0.00000     0.00000    -0.00000
  E(xc)     -89.14930   -89.14930   -89.68657     0.00000     0.00000    -0.00000
  Local   -8215.55580 -8215.55580  8275.72011    -0.00000    -0.00000     0.00000
  n-local    92.65998    90.61127    91.51579     3.38624     0.70568     2.27250
  augment    43.34626    43.34628    43.93701     0.00002     0.00001    -0.00001
  Kinetic   284.74821   283.95639   292.92843     1.88638     1.07892     3.53181
  Fock        0.00000     0.00000     0.00000     0.00000     0.00000     0.00000
  -------------------------------------------------------------------------------------
  Total      -0.13978    -0.13978    -0.82286     0.00000    -0.00000     0.00000
  in kB      -0.91688    -0.91688    -5.39739     0.00000    -0.00000     0.00000
  external pressure =       -2.41 kB  Pullay stress =        0.00 kB


 VOLUME and BASIS-vectors are now :
 -----------------------------------------------------------------------------
  energy-cutoff  :      600.00
  volume of cell :      244.26
      direct lattice vectors                 reciprocal lattice vectors
     3.721134027  0.000000000  0.000000000     0.268735281  0.155154387 -0.000000000
    -1.860567013  3.222596598  0.000000000     0.000000000  0.310308774  0.000000000
     0.000000000  0.000000000 20.369085854     0.000000000 -0.000000000  0.049094005

  length of vectors
     3.721134027  3.721134027 20.369085854     0.310308774  0.310308774  0.049094005


 FORCES acting on ions
    electron-ion (+dipol)            ewald-force                    non-local-force                 convergence-correction
 -----------------------------------------------------------------------------------------------
   0.800E-14 0.173E-13 -.101E-12   0.229E-14 -.666E-14 0.000E+00   0.000E+00 0.000E+00 0.000E+00   -.601E-13 -.755E-13 -.350E-11
   -.107E-06 0.619E-07 0.505E+03   -.185E-11 0.134E-11 -.509E+03   -.121E-16 0.694E-17 0.362E+01   -.124E-03 0.713E-04 0.122E+00
   0.107E-06 -.619E-07 -.505E+03   0.185E-11 -.135E-11 0.509E+03   0.217E-17 -.694E-17 -.362E+01   0.124E-03 -.713E-04 -.122E+00
 -----------------------------------------------------------------------------------------------
   0.916E-13 0.276E-12 -.551E-12   -.364E-14 -.136E-13 0.000E+00   -.997E-17 0.000E+00 -.444E-15   -.259E-13 -.106E-12 -.770E-11


 POSITION                                       TOTAL-FORCE (eV/Angst)
 -----------------------------------------------------------------------------------
      0.00000      0.00000      0.00000        -0.000000      0.000000      0.000000
      1.86057      1.07420     19.05605         0.000000     -0.000000      0.075552
     -0.00000      2.14840      1.31303        -0.000000      0.000000     -0.075552
 -----------------------------------------------------------------------------------
    total drift:                                0.000000      0.000000     -0.000000


--------------------------------------------------------------------------------------------------------



  FREE ENERGIE OF THE ION-ELECTRON SYSTEM (eV)
  ---------------------------------------------------
  free  energy   TOTEN  =       -12.08435187 eV

  energy  without entropy=      -12.08435187  energy(sigma->0) =      -12.08435187



--------------------------------------------------------------------------------------------------------


    POTLOK:  cpu time      0.2166: real time      0.2175


--------------------------------------------------------------------------------------------------------


     LOOP+:  cpu time     91.8565: real time     92.5134
    4ORBIT:  cpu time      0.0000: real time      0.0000



 total charge

# of ion       s       p       d       tot
------------------------------------------
    1        0.655   0.659   8.200   9.514
    2        1.474   2.257   0.053   3.784
    3        1.474   2.257   0.053   3.784
--------------------------------------------------
tot          3.602   5.173   8.306  17.082


 total amount of memory used by VASP MPI-rank0   191817. kBytes
=======================================================================

   base      :      30000. kBytes
   nonl-proj :     122813. kBytes
   fftplans  :       4637. kBytes
   grid      :       6612. kBytes
   one-center:         15. kBytes
   wavefun   :      27740. kBytes

  
  
 General timing and accounting informations for this job:
 ========================================================
  
                  Total CPU time used (sec):      102.040
                            User time (sec):      100.972
                          System time (sec):        1.068
                         Elapsed time (sec):      103.840
  
                   Maximum memory used (kb):      418444.
                   Average memory used (kb):          N/A
  
                          Minor page faults:        59626
                          Major page faults:           11
                 Voluntary context switches:         4824
