 vasp.6.4.2 20Jul23 (build Jun 20 2024 14:04:24) complex                         
 executed on             LinuxGNU date 2026.03.10  02:17:31
 running   28 mpi-ranks, with    1 threads/rank, on    1 nodes
 distrk:  each k-point on   28 cores,    1 groups
 distr:  one band on NCORE=   7 cores,    4 groups


--------------------------------------------------------------------------------------------------------


 INCAR:
   SYSTEM = PtS2
   ALGO = Normal
   LREAL = False
   PREC = Accurate
   ICHARG = 11
   ISYM = 2
   LASPH = True
   IBRION = -1
   ISIF = 2
   NSW = 0
   NELM = 100
   NELMIN = 5
   ISMEAR = 0
   SIGMA = 0.05
   ENCUT = 600
   EDIFF = 1E-8
   LCHARG = True
   LWAVE = False
   LSORBIT = True
   LORBIT = 11
   NPAR = 4
   LDAU = True
   LDAUTYPE = 2
   LDAUL = 2 -1
   LDAUU = 3.00 0.00
   LDAUJ = 0.00 0.00
   LMAXMIX = 4
   LDAUPRINT = 1

 POTCAR:    PAW_PBE Pt 04Feb2005                  
 POTCAR:    PAW_PBE Se 06Sep2000                  
 -----------------------------------------------------------------------------
|                                                                             |
|           W    W    AA    RRRRR   N    N  II  N    N   GGGG   !!!           |
|           W    W   A  A   R    R  NN   N  II  NN   N  G    G  !!!           |
|           W    W  A    A  R    R  N N  N  II  N N  N  G       !!!           |
|           W WW W  AAAAAA  RRRRR   N  N N  II  N  N N  G  GGG   !            |
|           WW  WW  A    A  R   R   N   NN  II  N   NN  G    G                |
|           W    W  A    A  R    R  N    N  II  N    N   GGGG   !!!           |
|                                                                             |
|     You use a magnetic or noncollinear calculation, but did not specify     |
|     the initial magnetic moment with the MAGMOM tag. Note that a            |
|     default of 1 will be used for all atoms. This ferromagnetic setup       |
|     may break the symmetry of the crystal, in particular it may rule        |
|     out finding an antiferromagnetic solution. Thence, we recommend         |
|     setting the initial magnetic moment manually or verifying carefully     |
|     that this magnetic setup is desired.                                    |
|                                                                             |
 -----------------------------------------------------------------------------

 POTCAR:    PAW_PBE Pt 04Feb2005                  
   SHA256 =  3ed90460adef76debcff1cfb73ee1349b515b1a3db03439735b44de3a8db7dc8 Pt/POTCAR             
   COPYR  = (c) Copyright 04Feb2005 Georg Kresse                                                    
   COPYR  = This file is part of the software VASP. Any use, copying, and all other rights are regul
   COPYR  = If you do not have a valid VASP license, you may not use, copy or distribute this file. 
   VRHFIN =Pt: s1d9                                                                                 
   LEXCH  = PE                                                                                      
   EATOM  =   729.1176 eV,   53.5886 Ry                                                             
                                                                                                    
   TITEL  = PAW_PBE Pt 04Feb2005                                                                    
   LULTRA =        F    use ultrasoft PP ?                                                          
   IUNSCR =        1    unscreen: 0-lin 1-nonlin 2-no                                               
   RPACOR =    2.330    partial core radius                                                         
   POMASS =  195.080; ZVAL   =   10.000    mass and valenz                                          
   RCORE  =    2.600    outmost cutoff radius                                                       
   RWIGS  =    2.750; RWIGS  =    1.455    wigner-seitz radius (au A)                               
   ENMAX  =  230.283; ENMIN  =  172.712 eV                                                          
   ICORE  =        3    local potential                                                             
   LCOR   =        T    correct aug charges                                                         
   LPAW   =        T    paw PP                                                                      
   EAUG   =  358.966                                                                                
   DEXC   =    0.000                                                                                
   RMAX   =    2.658    core radius for proj-oper                                                   
   RAUG   =    1.300    factor for augmentation sphere                                              
   RDEP   =    2.761    radius for radial grids                                                     
   RDEPT  =    2.203    core radius for aug-charge                                                  
                                                                                                    
   Atomic configuration                                                                             
   16 entries                                                                                       
     n  l   j            E        occ.                                                              
     1  0  0.50    -78401.1885   2.0000                                                             
     2  0  0.50    -13770.7750   2.0000                                                             
     2  1  1.50    -11931.0468   6.0000                                                             
     3  0  0.50     -3234.7234   2.0000                                                             
     3  1  1.50     -2699.2216   6.0000                                                             
     3  2  2.50     -2119.5714  10.0000                                                             
     4  0  0.50      -695.1528   2.0000                                                             
     4  1  1.50      -519.6034   6.0000                                                             
     4  2  2.50      -306.6786  10.0000                                                             
     4  3  3.50       -70.1041  14.0000                                                             
     5  0  0.50      -101.7747   2.0000                                                             
     5  1  1.50       -55.9873   6.0000                                                             
     5  2  2.50        -6.1423   9.0000                                                             
     6  0  0.50        -5.6573   1.0000                                                             
     6  1  1.50        -6.8029   0.0000                                                             
     5  3  2.50        -1.3606   0.0000                                                             
   Description                                                                                      
     l       E           TYP  RCUT    TYP  RCUT                                                     
     2     -6.1423404     23  2.500                                                                 
     2     -7.5029230     23  2.500                                                                 
     0     -5.6573207     23  2.500                                                                 
     0      0.7416693     23  2.500                                                                 
     1     -2.7211652     23  2.600                                                                 
     1     20.4087390     23  2.600                                                                 
     3     -1.3605826     23  2.500                                                                 
  local pseudopotential read in
  partial core-charges read in
  partial kinetic energy density read in
  atomic valenz-charges read in
  non local Contribution for L=           2  read in
    real space projection operators read in
  non local Contribution for L=           2  read in
    real space projection operators read in
  non local Contribution for L=           0  read in
    real space projection operators read in
  non local Contribution for L=           0  read in
    real space projection operators read in
  non local Contribution for L=           1  read in
    real space projection operators read in
  non local Contribution for L=           1  read in
    real space projection operators read in
    PAW grid and wavefunctions read in

   number of l-projection  operators is LMAX  =           6
   number of lm-projection operators is LMMAX =          18

 POTCAR:    PAW_PBE Se 06Sep2000                  
   SHA256 =  eabb916e6b4c819dc065ce039373bc328651da483898f08fb9e49c498452bf12 Se/POTCAR             
   COPYR  = (c) Copyright 06Sep2000 Georg Kresse                                                    
   COPYR  = This file is part of the software VASP. Any use, copying, and all other rights are regul
   COPYR  = If you do not have a valid VASP license, you may not use, copy or distribute this file. 
   VRHFIN =Se: s2p4                                                                                 
   LEXCH  = PE                                                                                      
   EATOM  =   257.1286 eV,   18.8984 Ry                                                             
                                                                                                    
   TITEL  = PAW_PBE Se 06Sep2000                                                                    
   LULTRA =        F    use ultrasoft PP ?                                                          
   IUNSCR =        1    unscreen: 0-lin 1-nonlin 2-no                                               
   RPACOR =    1.900    partial core radius                                                         
   POMASS =   78.960; ZVAL   =    6.000    mass and valenz                                          
   RCORE  =    2.100    outmost cutoff radius                                                       
   RWIGS  =    2.200; RWIGS  =    1.164    wigner-seitz radius (au A)                               
   ENMAX  =  211.555; ENMIN  =  158.666 eV                                                          
   ICORE  =        3    local potential                                                             
   LCOR   =        T    correct aug charges                                                         
   LPAW   =        T    paw PP                                                                      
   EAUG   =  446.842                                                                                
   DEXC   =    0.000                                                                                
   RMAX   =    2.147    core radius for proj-oper                                                   
   RAUG   =    1.300    factor for augmentation sphere                                              
   RDEP   =    2.177    radius for radial grids                                                     
   RDEPT  =    1.928    core radius for aug-charge                                                  
                                                                                                    
   Atomic configuration                                                                             
   10 entries                                                                                       
     n  l   j            E        occ.                                                              
     1  0  0.50    -12503.4787   2.0000                                                             
     2  0  0.50     -1606.9547   2.0000                                                             
     2  1  1.50     -1413.3140   6.0000                                                             
     3  0  0.50      -213.4885   2.0000                                                             
     3  1  1.50      -152.9538   6.0000                                                             
     3  2  2.50       -53.1221  10.0000                                                             
     4  0  0.50       -17.2865   2.0000                                                             
     4  1  0.50        -6.5110   4.0000                                                             
     4  2  2.50        -6.8029   0.0000                                                             
     4  3  2.50        -6.8029   0.0000                                                             
   Description                                                                                      
     l       E           TYP  RCUT    TYP  RCUT                                                     
     0    -17.2865377     23  2.100                                                                 
     0    -15.3094411     23  2.100                                                                 
     1     -6.5110275     23  2.100                                                                 
     1     -0.0695192     23  2.100                                                                 
     2     -6.8029130     23  2.100                                                                 
     3     -1.3605826      7  2.100                                                                 
  local pseudopotential read in
  partial core-charges read in
  partial kinetic energy density read in
  atomic valenz-charges read in
  non local Contribution for L=           0  read in
    real space projection operators read in
  non local Contribution for L=           0  read in
    real space projection operators read in
  non local Contribution for L=           1  read in
    real space projection operators read in
  non local Contribution for L=           1  read in
    real space projection operators read in
  non local Contribution for L=           2  read in
    real space projection operators read in
    PAW grid and wavefunctions read in

   number of l-projection  operators is LMAX  =           5
   number of lm-projection operators is LMMAX =          13

  PAW_PBE Pt 04Feb2005                  :
 energy of atom  1       EATOM= -729.1176
 kinetic energy error for atom=    0.0012 (will be added to EATOM!!)
  PAW_PBE Se 06Sep2000                  :
 energy of atom  2       EATOM= -257.1286
 kinetic energy error for atom=    0.0006 (will be added to EATOM!!)


 POSCAR: generated by phonopy
  positions in direct lattice
  No initial velocities read in
 exchange correlation table for  LEXCH =        8
   RHO(1)=    0.500       N(1)  =     2000
   RHO(2)=  100.500       N(2)  =     4000



--------------------------------------------------------------------------------------------------------


 ion  position               nearest neighbor table
   1  0.000  0.000  0.000-   3 2.52   2 2.52   2 2.52   3 2.52   2 2.52   3 2.52
   2  0.667  0.333  0.935-   1 2.52   1 2.52   1 2.52
   3  0.333  0.667  0.065-   1 2.52   1 2.52   1 2.52

  LATTYP: Found a hexagonal cell.
 ALAT       =     3.7215077841
 C/A-ratio  =     5.4722429280
  
  Lattice vectors:
  
 A1 = (   3.7215077841,   0.0000000000,   0.0000000000)
 A2 = (  -1.8607538920,   3.2229202814,   0.0000000000)
 A3 = (   0.0000000000,   0.0000000000,  20.3649946529)


Analysis of symmetry for initial positions (statically):
=====================================================================
 Subroutine PRICEL returns:
 Original cell was already a primitive cell.
 

 Routine SETGRP: Setting up the symmetry group for a 
 hexagonal supercell.


 Subroutine GETGRP returns: Found 12 space group operations
 (whereof 12 operations were pure point group operations)
 out of a pool of 24 trial point group operations.


The static configuration has the point symmetry D_3d.


Analysis of symmetry for dynamics (positions and initial velocities):
=====================================================================
 Subroutine PRICEL returns:
 Original cell was already a primitive cell.
 

 Routine SETGRP: Setting up the symmetry group for a 
 hexagonal supercell.


 Subroutine GETGRP returns: Found 12 space group operations
 (whereof 12 operations were pure point group operations)
 out of a pool of 24 trial point group operations.


The dynamic configuration has the point symmetry D_3d.


Analysis of structural, dynamic, and magnetic symmetry:
=====================================================================
 Subroutine PRICEL returns:
 Original cell was already a primitive cell.
 

 Routine SETGRP: Setting up the symmetry group for a 
 hexagonal supercell.


 Subroutine GETGRP returns: Found  2 space group operations
 (whereof  2 operations were pure point group operations)
 out of a pool of 24 trial point group operations.


The overall configuration has the point symmetry S_2 .


 Subroutine INISYM returns: Found  2 space group operations
 (whereof  2 operations are pure point group operations),
 and found     1 'primitive' translations


----------------------------------------------------------------------------------------

                                     Primitive cell                                     

  volume of cell :     244.2602

  direct lattice vectors                    reciprocal lattice vectors
     3.721507784  0.000000000  0.000000000     0.268708292  0.155138805 -0.000000000
    -1.860753892  3.222920281  0.000000000     0.000000000  0.310277609  0.000000000
     0.000000000  0.000000000 20.364994653     0.000000000 -0.000000000  0.049103868

  length of vectors
     3.721507784  3.721507784 20.364994653     0.310277609  0.310277609  0.049103868

  position of ions in fractional coordinates (direct lattice)
     0.000000000  0.000000000  0.000000000
     0.666666667  0.333333333  0.935388791
     0.333333333  0.666666667  0.064611209

  ion indices of the primitive-cell ions
   primitive index   ion index
                 1           1
                 2           2
                 3           3

----------------------------------------------------------------------------------------



 KPOINTS: HEX (hexagonal) G-M-K-G                 

Interpolating k-points between supplied coordinates.

 Line segments in fractional coordinates (reciprocal lattice):
    0.000000  0.000000  0.000000  ...  0.333333  0.333333  0.000000
    0.333333  0.333333  0.000000  ...  0.500000  0.000000  0.000000
    0.500000  0.000000  0.000000  ...  0.000000  0.000000  0.000000

 Generated   120 points on each line segment, for a total of    360 k-points:

 Following reciprocal coordinates:
            Coordinates               Weight
  0.000000  0.000000  0.000000      0.002778
  0.002801  0.002801  0.000000      0.002778
  0.005602  0.005602  0.000000      0.002778
  0.008403  0.008403  0.000000      0.002778
  0.011204  0.011204  0.000000      0.002778
  0.014006  0.014006  0.000000      0.002778
  0.016807  0.016807  0.000000      0.002778
  0.019608  0.019608  0.000000      0.002778
  0.022409  0.022409  0.000000      0.002778
  0.025210  0.025210  0.000000      0.002778
  0.028011  0.028011  0.000000      0.002778
  0.030812  0.030812  0.000000      0.002778
  0.033613  0.033613  0.000000      0.002778
  0.036415  0.036415  0.000000      0.002778
  0.039216  0.039216  0.000000      0.002778
  0.042017  0.042017  0.000000      0.002778
  0.044818  0.044818  0.000000      0.002778
  0.047619  0.047619  0.000000      0.002778
  0.050420  0.050420  0.000000      0.002778
  0.053221  0.053221  0.000000      0.002778
  0.056022  0.056022  0.000000      0.002778
  0.058824  0.058824  0.000000      0.002778
  0.061625  0.061625  0.000000      0.002778
  0.064426  0.064426  0.000000      0.002778
  0.067227  0.067227  0.000000      0.002778
  0.070028  0.070028  0.000000      0.002778
  0.072829  0.072829  0.000000      0.002778
  0.075630  0.075630  0.000000      0.002778
  0.078431  0.078431  0.000000      0.002778
  0.081232  0.081232  0.000000      0.002778
  0.084034  0.084034  0.000000      0.002778
  0.086835  0.086835  0.000000      0.002778
  0.089636  0.089636  0.000000      0.002778
  0.092437  0.092437  0.000000      0.002778
  0.095238  0.095238  0.000000      0.002778
  0.098039  0.098039  0.000000      0.002778
  0.100840  0.100840  0.000000      0.002778
  0.103641  0.103641  0.000000      0.002778
  0.106443  0.106443  0.000000      0.002778
  0.109244  0.109244  0.000000      0.002778
  0.112045  0.112045  0.000000      0.002778
  0.114846  0.114846  0.000000      0.002778
  0.117647  0.117647  0.000000      0.002778
  0.120448  0.120448  0.000000      0.002778
  0.123249  0.123249  0.000000      0.002778
  0.126050  0.126050  0.000000      0.002778
  0.128852  0.128852  0.000000      0.002778
  0.131653  0.131653  0.000000      0.002778
  0.134454  0.134454  0.000000      0.002778
  0.137255  0.137255  0.000000      0.002778
  0.140056  0.140056  0.000000      0.002778
  0.142857  0.142857  0.000000      0.002778
  0.145658  0.145658  0.000000      0.002778
  0.148459  0.148459  0.000000      0.002778
  0.151261  0.151261  0.000000      0.002778
  0.154062  0.154062  0.000000      0.002778
  0.156863  0.156863  0.000000      0.002778
  0.159664  0.159664  0.000000      0.002778
  0.162465  0.162465  0.000000      0.002778
  0.165266  0.165266  0.000000      0.002778
  0.168067  0.168067  0.000000      0.002778
  0.170868  0.170868  0.000000      0.002778
  0.173669  0.173669  0.000000      0.002778
  0.176471  0.176471  0.000000      0.002778
  0.179272  0.179272  0.000000      0.002778
  0.182073  0.182073  0.000000      0.002778
  0.184874  0.184874  0.000000      0.002778
  0.187675  0.187675  0.000000      0.002778
  0.190476  0.190476  0.000000      0.002778
  0.193277  0.193277  0.000000      0.002778
  0.196078  0.196078  0.000000      0.002778
  0.198880  0.198880  0.000000      0.002778
  0.201681  0.201681  0.000000      0.002778
  0.204482  0.204482  0.000000      0.002778
  0.207283  0.207283  0.000000      0.002778
  0.210084  0.210084  0.000000      0.002778
  0.212885  0.212885  0.000000      0.002778
  0.215686  0.215686  0.000000      0.002778
  0.218487  0.218487  0.000000      0.002778
  0.221289  0.221289  0.000000      0.002778
  0.224090  0.224090  0.000000      0.002778
  0.226891  0.226891  0.000000      0.002778
  0.229692  0.229692  0.000000      0.002778
  0.232493  0.232493  0.000000      0.002778
  0.235294  0.235294  0.000000      0.002778
  0.238095  0.238095  0.000000      0.002778
  0.240896  0.240896  0.000000      0.002778
  0.243697  0.243697  0.000000      0.002778
  0.246499  0.246499  0.000000      0.002778
  0.249300  0.249300  0.000000      0.002778
  0.252101  0.252101  0.000000      0.002778
  0.254902  0.254902  0.000000      0.002778
  0.257703  0.257703  0.000000      0.002778
  0.260504  0.260504  0.000000      0.002778
  0.263305  0.263305  0.000000      0.002778
  0.266106  0.266106  0.000000      0.002778
  0.268908  0.268908  0.000000      0.002778
  0.271709  0.271709  0.000000      0.002778
  0.274510  0.274510  0.000000      0.002778
  0.277311  0.277311  0.000000      0.002778
  0.280112  0.280112  0.000000      0.002778
  0.282913  0.282913  0.000000      0.002778
  0.285714  0.285714  0.000000      0.002778
  0.288515  0.288515  0.000000      0.002778
  0.291317  0.291317  0.000000      0.002778
  0.294118  0.294118  0.000000      0.002778
  0.296919  0.296919  0.000000      0.002778
  0.299720  0.299720  0.000000      0.002778
  0.302521  0.302521  0.000000      0.002778
  0.305322  0.305322  0.000000      0.002778
  0.308123  0.308123  0.000000      0.002778
  0.310924  0.310924  0.000000      0.002778
  0.313725  0.313725  0.000000      0.002778
  0.316527  0.316527  0.000000      0.002778
  0.319328  0.319328  0.000000      0.002778
  0.322129  0.322129  0.000000      0.002778
  0.324930  0.324930  0.000000      0.002778
  0.327731  0.327731  0.000000      0.002778
  0.330532  0.330532  0.000000      0.002778
  0.333333  0.333333  0.000000      0.002778
  0.333333  0.333333  0.000000      0.002778
  0.334734  0.330532  0.000000      0.002778
  0.336134  0.327731  0.000000      0.002778
  0.337535  0.324930  0.000000      0.002778
  0.338936  0.322129  0.000000      0.002778
  0.340336  0.319328  0.000000      0.002778
  0.341737  0.316527  0.000000      0.002778
  0.343137  0.313725  0.000000      0.002778
  0.344538  0.310924  0.000000      0.002778
  0.345938  0.308123  0.000000      0.002778
  0.347339  0.305322  0.000000      0.002778
  0.348739  0.302521  0.000000      0.002778
  0.350140  0.299720  0.000000      0.002778
  0.351541  0.296919  0.000000      0.002778
  0.352941  0.294118  0.000000      0.002778
  0.354342  0.291317  0.000000      0.002778
  0.355742  0.288515  0.000000      0.002778
  0.357143  0.285714  0.000000      0.002778
  0.358543  0.282913  0.000000      0.002778
  0.359944  0.280112  0.000000      0.002778
  0.361345  0.277311  0.000000      0.002778
  0.362745  0.274510  0.000000      0.002778
  0.364146  0.271709  0.000000      0.002778
  0.365546  0.268908  0.000000      0.002778
  0.366947  0.266106  0.000000      0.002778
  0.368347  0.263305  0.000000      0.002778
  0.369748  0.260504  0.000000      0.002778
  0.371148  0.257703  0.000000      0.002778
  0.372549  0.254902  0.000000      0.002778
  0.373950  0.252101  0.000000      0.002778
  0.375350  0.249300  0.000000      0.002778
  0.376751  0.246499  0.000000      0.002778
  0.378151  0.243697  0.000000      0.002778
  0.379552  0.240896  0.000000      0.002778
  0.380952  0.238095  0.000000      0.002778
  0.382353  0.235294  0.000000      0.002778
  0.383753  0.232493  0.000000      0.002778
  0.385154  0.229692  0.000000      0.002778
  0.386555  0.226891  0.000000      0.002778
  0.387955  0.224090  0.000000      0.002778
  0.389356  0.221289  0.000000      0.002778
  0.390756  0.218487  0.000000      0.002778
  0.392157  0.215686  0.000000      0.002778
  0.393557  0.212885  0.000000      0.002778
  0.394958  0.210084  0.000000      0.002778
  0.396359  0.207283  0.000000      0.002778
  0.397759  0.204482  0.000000      0.002778
  0.399160  0.201681  0.000000      0.002778
  0.400560  0.198880  0.000000      0.002778
  0.401961  0.196078  0.000000      0.002778
  0.403361  0.193277  0.000000      0.002778
  0.404762  0.190476  0.000000      0.002778
  0.406162  0.187675  0.000000      0.002778
  0.407563  0.184874  0.000000      0.002778
  0.408964  0.182073  0.000000      0.002778
  0.410364  0.179272  0.000000      0.002778
  0.411765  0.176471  0.000000      0.002778
  0.413165  0.173669  0.000000      0.002778
  0.414566  0.170868  0.000000      0.002778
  0.415966  0.168067  0.000000      0.002778
  0.417367  0.165266  0.000000      0.002778
  0.418768  0.162465  0.000000      0.002778
  0.420168  0.159664  0.000000      0.002778
  0.421569  0.156863  0.000000      0.002778
  0.422969  0.154062  0.000000      0.002778
  0.424370  0.151261  0.000000      0.002778
  0.425770  0.148459  0.000000      0.002778
  0.427171  0.145658  0.000000      0.002778
  0.428571  0.142857  0.000000      0.002778
  0.429972  0.140056  0.000000      0.002778
  0.431373  0.137255  0.000000      0.002778
  0.432773  0.134454  0.000000      0.002778
  0.434174  0.131653  0.000000      0.002778
  0.435574  0.128852  0.000000      0.002778
  0.436975  0.126050  0.000000      0.002778
  0.438375  0.123249  0.000000      0.002778
  0.439776  0.120448  0.000000      0.002778
  0.441176  0.117647  0.000000      0.002778
  0.442577  0.114846  0.000000      0.002778
  0.443978  0.112045  0.000000      0.002778
  0.445378  0.109244  0.000000      0.002778
  0.446779  0.106443  0.000000      0.002778
  0.448179  0.103641  0.000000      0.002778
  0.449580  0.100840  0.000000      0.002778
  0.450980  0.098039  0.000000      0.002778
  0.452381  0.095238  0.000000      0.002778
  0.453782  0.092437  0.000000      0.002778
  0.455182  0.089636  0.000000      0.002778
  0.456583  0.086835  0.000000      0.002778
  0.457983  0.084034  0.000000      0.002778
  0.459384  0.081232  0.000000      0.002778
  0.460784  0.078431  0.000000      0.002778
  0.462185  0.075630  0.000000      0.002778
  0.463585  0.072829  0.000000      0.002778
  0.464986  0.070028  0.000000      0.002778
  0.466387  0.067227  0.000000      0.002778
  0.467787  0.064426  0.000000      0.002778
  0.469188  0.061625  0.000000      0.002778
  0.470588  0.058824  0.000000      0.002778
  0.471989  0.056022  0.000000      0.002778
  0.473389  0.053221  0.000000      0.002778
  0.474790  0.050420  0.000000      0.002778
  0.476190  0.047619  0.000000      0.002778
  0.477591  0.044818  0.000000      0.002778
  0.478992  0.042017  0.000000      0.002778
  0.480392  0.039216  0.000000      0.002778
  0.481793  0.036415  0.000000      0.002778
  0.483193  0.033613  0.000000      0.002778
  0.484594  0.030812  0.000000      0.002778
  0.485994  0.028011  0.000000      0.002778
  0.487395  0.025210  0.000000      0.002778
  0.488796  0.022409  0.000000      0.002778
  0.490196  0.019608  0.000000      0.002778
  0.491597  0.016807  0.000000      0.002778
  0.492997  0.014006  0.000000      0.002778
  0.494398  0.011204  0.000000      0.002778
  0.495798  0.008403  0.000000      0.002778
  0.497199  0.005602  0.000000      0.002778
  0.498599  0.002801  0.000000      0.002778
  0.500000  0.000000  0.000000      0.002778
  0.500000  0.000000  0.000000      0.002778
  0.495798  0.000000  0.000000      0.002778
  0.491597  0.000000  0.000000      0.002778
  0.487395  0.000000  0.000000      0.002778
  0.483193  0.000000  0.000000      0.002778
  0.478992  0.000000  0.000000      0.002778
  0.474790  0.000000  0.000000      0.002778
  0.470588  0.000000  0.000000      0.002778
  0.466387  0.000000  0.000000      0.002778
  0.462185  0.000000  0.000000      0.002778
  0.457983  0.000000  0.000000      0.002778
  0.453782  0.000000  0.000000      0.002778
  0.449580  0.000000  0.000000      0.002778
  0.445378  0.000000  0.000000      0.002778
  0.441176  0.000000  0.000000      0.002778
  0.436975  0.000000  0.000000      0.002778
  0.432773  0.000000  0.000000      0.002778
  0.428571  0.000000  0.000000      0.002778
  0.424370  0.000000  0.000000      0.002778
  0.420168  0.000000  0.000000      0.002778
  0.415966  0.000000  0.000000      0.002778
  0.411765  0.000000  0.000000      0.002778
  0.407563  0.000000  0.000000      0.002778
  0.403361  0.000000  0.000000      0.002778
  0.399160  0.000000  0.000000      0.002778
  0.394958  0.000000  0.000000      0.002778
  0.390756  0.000000  0.000000      0.002778
  0.386555  0.000000  0.000000      0.002778
  0.382353  0.000000  0.000000      0.002778
  0.378151  0.000000  0.000000      0.002778
  0.373950  0.000000  0.000000      0.002778
  0.369748  0.000000  0.000000      0.002778
  0.365546  0.000000  0.000000      0.002778
  0.361345  0.000000  0.000000      0.002778
  0.357143  0.000000  0.000000      0.002778
  0.352941  0.000000  0.000000      0.002778
  0.348739  0.000000  0.000000      0.002778
  0.344538  0.000000  0.000000      0.002778
  0.340336  0.000000  0.000000      0.002778
  0.336134  0.000000  0.000000      0.002778
  0.331933  0.000000  0.000000      0.002778
  0.327731  0.000000  0.000000      0.002778
  0.323529  0.000000  0.000000      0.002778
  0.319328  0.000000  0.000000      0.002778
  0.315126  0.000000  0.000000      0.002778
  0.310924  0.000000  0.000000      0.002778
  0.306723  0.000000  0.000000      0.002778
  0.302521  0.000000  0.000000      0.002778
  0.298319  0.000000  0.000000      0.002778
  0.294118  0.000000  0.000000      0.002778
  0.289916  0.000000  0.000000      0.002778
  0.285714  0.000000  0.000000      0.002778
  0.281513  0.000000  0.000000      0.002778
  0.277311  0.000000  0.000000      0.002778
  0.273109  0.000000  0.000000      0.002778
  0.268908  0.000000  0.000000      0.002778
  0.264706  0.000000  0.000000      0.002778
  0.260504  0.000000  0.000000      0.002778
  0.256303  0.000000  0.000000      0.002778
  0.252101  0.000000  0.000000      0.002778
  0.247899  0.000000  0.000000      0.002778
  0.243697  0.000000  0.000000      0.002778
  0.239496  0.000000  0.000000      0.002778
  0.235294  0.000000  0.000000      0.002778
  0.231092  0.000000  0.000000      0.002778
  0.226891  0.000000  0.000000      0.002778
  0.222689  0.000000  0.000000      0.002778
  0.218487  0.000000  0.000000      0.002778
  0.214286  0.000000  0.000000      0.002778
  0.210084  0.000000  0.000000      0.002778
  0.205882  0.000000  0.000000      0.002778
  0.201681  0.000000  0.000000      0.002778
  0.197479  0.000000  0.000000      0.002778
  0.193277  0.000000  0.000000      0.002778
  0.189076  0.000000  0.000000      0.002778
  0.184874  0.000000  0.000000      0.002778
  0.180672  0.000000  0.000000      0.002778
  0.176471  0.000000  0.000000      0.002778
  0.172269  0.000000  0.000000      0.002778
  0.168067  0.000000  0.000000      0.002778
  0.163866  0.000000  0.000000      0.002778
  0.159664  0.000000  0.000000      0.002778
  0.155462  0.000000  0.000000      0.002778
  0.151261  0.000000  0.000000      0.002778
  0.147059  0.000000  0.000000      0.002778
  0.142857  0.000000  0.000000      0.002778
  0.138655  0.000000  0.000000      0.002778
  0.134454  0.000000  0.000000      0.002778
  0.130252  0.000000  0.000000      0.002778
  0.126050  0.000000  0.000000      0.002778
  0.121849  0.000000  0.000000      0.002778
  0.117647  0.000000  0.000000      0.002778
  0.113445  0.000000  0.000000      0.002778
  0.109244  0.000000  0.000000      0.002778
  0.105042  0.000000  0.000000      0.002778
  0.100840  0.000000  0.000000      0.002778
  0.096639  0.000000  0.000000      0.002778
  0.092437  0.000000  0.000000      0.002778
  0.088235  0.000000  0.000000      0.002778
  0.084034  0.000000  0.000000      0.002778
  0.079832  0.000000  0.000000      0.002778
  0.075630  0.000000  0.000000      0.002778
  0.071429  0.000000  0.000000      0.002778
  0.067227  0.000000  0.000000      0.002778
  0.063025  0.000000  0.000000      0.002778
  0.058824  0.000000  0.000000      0.002778
  0.054622  0.000000  0.000000      0.002778
  0.050420  0.000000  0.000000      0.002778
  0.046218  0.000000  0.000000      0.002778
  0.042017  0.000000  0.000000      0.002778
  0.037815  0.000000  0.000000      0.002778
  0.033613  0.000000  0.000000      0.002778
  0.029412  0.000000  0.000000      0.002778
  0.025210  0.000000  0.000000      0.002778
  0.021008  0.000000  0.000000      0.002778
  0.016807  0.000000  0.000000      0.002778
  0.012605  0.000000  0.000000      0.002778
  0.008403  0.000000  0.000000      0.002778
  0.004202  0.000000  0.000000      0.002778
  0.000000  0.000000  0.000000      0.002778

 Following cartesian coordinates:
            Coordinates               Weight
  0.000000  0.000000  0.000000      0.002778
  0.000753  0.001304  0.000000      0.002778
  0.001505  0.002607  0.000000      0.002778
  0.002258  0.003911  0.000000      0.002778
  0.003011  0.005215  0.000000      0.002778
  0.003763  0.006518  0.000000      0.002778
  0.004516  0.007822  0.000000      0.002778
  0.005269  0.009126  0.000000      0.002778
  0.006021  0.010429  0.000000      0.002778
  0.006774  0.011733  0.000000      0.002778
  0.007527  0.013037  0.000000      0.002778
  0.008280  0.014341  0.000000      0.002778
  0.009032  0.015644  0.000000      0.002778
  0.009785  0.016948  0.000000      0.002778
  0.010538  0.018252  0.000000      0.002778
  0.011290  0.019555  0.000000      0.002778
  0.012043  0.020859  0.000000      0.002778
  0.012796  0.022163  0.000000      0.002778
  0.013548  0.023466  0.000000      0.002778
  0.014301  0.024770  0.000000      0.002778
  0.015054  0.026074  0.000000      0.002778
  0.015806  0.027377  0.000000      0.002778
  0.016559  0.028681  0.000000      0.002778
  0.017312  0.029985  0.000000      0.002778
  0.018064  0.031288  0.000000      0.002778
  0.018817  0.032592  0.000000      0.002778
  0.019570  0.033896  0.000000      0.002778
  0.020322  0.035200  0.000000      0.002778
  0.021075  0.036503  0.000000      0.002778
  0.021828  0.037807  0.000000      0.002778
  0.022581  0.039111  0.000000      0.002778
  0.023333  0.040414  0.000000      0.002778
  0.024086  0.041718  0.000000      0.002778
  0.024839  0.043022  0.000000      0.002778
  0.025591  0.044325  0.000000      0.002778
  0.026344  0.045629  0.000000      0.002778
  0.027097  0.046933  0.000000      0.002778
  0.027849  0.048236  0.000000      0.002778
  0.028602  0.049540  0.000000      0.002778
  0.029355  0.050844  0.000000      0.002778
  0.030107  0.052147  0.000000      0.002778
  0.030860  0.053451  0.000000      0.002778
  0.031613  0.054755  0.000000      0.002778
  0.032365  0.056059  0.000000      0.002778
  0.033118  0.057362  0.000000      0.002778
  0.033871  0.058666  0.000000      0.002778
  0.034623  0.059970  0.000000      0.002778
  0.035376  0.061273  0.000000      0.002778
  0.036129  0.062577  0.000000      0.002778
  0.036882  0.063881  0.000000      0.002778
  0.037634  0.065184  0.000000      0.002778
  0.038387  0.066488  0.000000      0.002778
  0.039140  0.067792  0.000000      0.002778
  0.039892  0.069095  0.000000      0.002778
  0.040645  0.070399  0.000000      0.002778
  0.041398  0.071703  0.000000      0.002778
  0.042150  0.073006  0.000000      0.002778
  0.042903  0.074310  0.000000      0.002778
  0.043656  0.075614  0.000000      0.002778
  0.044408  0.076918  0.000000      0.002778
  0.045161  0.078221  0.000000      0.002778
  0.045914  0.079525  0.000000      0.002778
  0.046666  0.080829  0.000000      0.002778
  0.047419  0.082132  0.000000      0.002778
  0.048172  0.083436  0.000000      0.002778
  0.048924  0.084740  0.000000      0.002778
  0.049677  0.086043  0.000000      0.002778
  0.050430  0.087347  0.000000      0.002778
  0.051183  0.088651  0.000000      0.002778
  0.051935  0.089954  0.000000      0.002778
  0.052688  0.091258  0.000000      0.002778
  0.053441  0.092562  0.000000      0.002778
  0.054193  0.093865  0.000000      0.002778
  0.054946  0.095169  0.000000      0.002778
  0.055699  0.096473  0.000000      0.002778
  0.056451  0.097777  0.000000      0.002778
  0.057204  0.099080  0.000000      0.002778
  0.057957  0.100384  0.000000      0.002778
  0.058709  0.101688  0.000000      0.002778
  0.059462  0.102991  0.000000      0.002778
  0.060215  0.104295  0.000000      0.002778
  0.060967  0.105599  0.000000      0.002778
  0.061720  0.106902  0.000000      0.002778
  0.062473  0.108206  0.000000      0.002778
  0.063225  0.109510  0.000000      0.002778
  0.063978  0.110813  0.000000      0.002778
  0.064731  0.112117  0.000000      0.002778
  0.065484  0.113421  0.000000      0.002778
  0.066236  0.114724  0.000000      0.002778
  0.066989  0.116028  0.000000      0.002778
  0.067742  0.117332  0.000000      0.002778
  0.068494  0.118636  0.000000      0.002778
  0.069247  0.119939  0.000000      0.002778
  0.070000  0.121243  0.000000      0.002778
  0.070752  0.122547  0.000000      0.002778
  0.071505  0.123850  0.000000      0.002778
  0.072258  0.125154  0.000000      0.002778
  0.073010  0.126458  0.000000      0.002778
  0.073763  0.127761  0.000000      0.002778
  0.074516  0.129065  0.000000      0.002778
  0.075268  0.130369  0.000000      0.002778
  0.076021  0.131672  0.000000      0.002778
  0.076774  0.132976  0.000000      0.002778
  0.077526  0.134280  0.000000      0.002778
  0.078279  0.135583  0.000000      0.002778
  0.079032  0.136887  0.000000      0.002778
  0.079785  0.138191  0.000000      0.002778
  0.080537  0.139495  0.000000      0.002778
  0.081290  0.140798  0.000000      0.002778
  0.082043  0.142102  0.000000      0.002778
  0.082795  0.143406  0.000000      0.002778
  0.083548  0.144709  0.000000      0.002778
  0.084301  0.146013  0.000000      0.002778
  0.085053  0.147317  0.000000      0.002778
  0.085806  0.148620  0.000000      0.002778
  0.086559  0.149924  0.000000      0.002778
  0.087311  0.151228  0.000000      0.002778
  0.088064  0.152531  0.000000      0.002778
  0.088817  0.153835  0.000000      0.002778
  0.089569  0.155139  0.000000      0.002778
  0.089569  0.155139  0.000000      0.002778
  0.089946  0.154487  0.000000      0.002778
  0.090322  0.153835  0.000000      0.002778
  0.090698  0.153183  0.000000      0.002778
  0.091075  0.152531  0.000000      0.002778
  0.091451  0.151880  0.000000      0.002778
  0.091827  0.151228  0.000000      0.002778
  0.092204  0.150576  0.000000      0.002778
  0.092580  0.149924  0.000000      0.002778
  0.092957  0.149272  0.000000      0.002778
  0.093333  0.148620  0.000000      0.002778
  0.093709  0.147969  0.000000      0.002778
  0.094086  0.147317  0.000000      0.002778
  0.094462  0.146665  0.000000      0.002778
  0.094838  0.146013  0.000000      0.002778
  0.095215  0.145361  0.000000      0.002778
  0.095591  0.144709  0.000000      0.002778
  0.095967  0.144057  0.000000      0.002778
  0.096344  0.143406  0.000000      0.002778
  0.096720  0.142754  0.000000      0.002778
  0.097096  0.142102  0.000000      0.002778
  0.097473  0.141450  0.000000      0.002778
  0.097849  0.140798  0.000000      0.002778
  0.098225  0.140146  0.000000      0.002778
  0.098602  0.139495  0.000000      0.002778
  0.098978  0.138843  0.000000      0.002778
  0.099354  0.138191  0.000000      0.002778
  0.099731  0.137539  0.000000      0.002778
  0.100107  0.136887  0.000000      0.002778
  0.100483  0.136235  0.000000      0.002778
  0.100860  0.135583  0.000000      0.002778
  0.101236  0.134932  0.000000      0.002778
  0.101612  0.134280  0.000000      0.002778
  0.101989  0.133628  0.000000      0.002778
  0.102365  0.132976  0.000000      0.002778
  0.102741  0.132324  0.000000      0.002778
  0.103118  0.131672  0.000000      0.002778
  0.103494  0.131021  0.000000      0.002778
  0.103870  0.130369  0.000000      0.002778
  0.104247  0.129717  0.000000      0.002778
  0.104623  0.129065  0.000000      0.002778
  0.104999  0.128413  0.000000      0.002778
  0.105376  0.127761  0.000000      0.002778
  0.105752  0.127110  0.000000      0.002778
  0.106128  0.126458  0.000000      0.002778
  0.106505  0.125806  0.000000      0.002778
  0.106881  0.125154  0.000000      0.002778
  0.107258  0.124502  0.000000      0.002778
  0.107634  0.123850  0.000000      0.002778
  0.108010  0.123198  0.000000      0.002778
  0.108387  0.122547  0.000000      0.002778
  0.108763  0.121895  0.000000      0.002778
  0.109139  0.121243  0.000000      0.002778
  0.109516  0.120591  0.000000      0.002778
  0.109892  0.119939  0.000000      0.002778
  0.110268  0.119287  0.000000      0.002778
  0.110645  0.118636  0.000000      0.002778
  0.111021  0.117984  0.000000      0.002778
  0.111397  0.117332  0.000000      0.002778
  0.111774  0.116680  0.000000      0.002778
  0.112150  0.116028  0.000000      0.002778
  0.112526  0.115376  0.000000      0.002778
  0.112903  0.114724  0.000000      0.002778
  0.113279  0.114073  0.000000      0.002778
  0.113655  0.113421  0.000000      0.002778
  0.114032  0.112769  0.000000      0.002778
  0.114408  0.112117  0.000000      0.002778
  0.114784  0.111465  0.000000      0.002778
  0.115161  0.110813  0.000000      0.002778
  0.115537  0.110162  0.000000      0.002778
  0.115913  0.109510  0.000000      0.002778
  0.116290  0.108858  0.000000      0.002778
  0.116666  0.108206  0.000000      0.002778
  0.117042  0.107554  0.000000      0.002778
  0.117419  0.106902  0.000000      0.002778
  0.117795  0.106251  0.000000      0.002778
  0.118171  0.105599  0.000000      0.002778
  0.118548  0.104947  0.000000      0.002778
  0.118924  0.104295  0.000000      0.002778
  0.119300  0.103643  0.000000      0.002778
  0.119677  0.102991  0.000000      0.002778
  0.120053  0.102339  0.000000      0.002778
  0.120429  0.101688  0.000000      0.002778
  0.120806  0.101036  0.000000      0.002778
  0.121182  0.100384  0.000000      0.002778
  0.121559  0.099732  0.000000      0.002778
  0.121935  0.099080  0.000000      0.002778
  0.122311  0.098428  0.000000      0.002778
  0.122688  0.097777  0.000000      0.002778
  0.123064  0.097125  0.000000      0.002778
  0.123440  0.096473  0.000000      0.002778
  0.123817  0.095821  0.000000      0.002778
  0.124193  0.095169  0.000000      0.002778
  0.124569  0.094517  0.000000      0.002778
  0.124946  0.093865  0.000000      0.002778
  0.125322  0.093214  0.000000      0.002778
  0.125698  0.092562  0.000000      0.002778
  0.126075  0.091910  0.000000      0.002778
  0.126451  0.091258  0.000000      0.002778
  0.126827  0.090606  0.000000      0.002778
  0.127204  0.089954  0.000000      0.002778
  0.127580  0.089303  0.000000      0.002778
  0.127956  0.088651  0.000000      0.002778
  0.128333  0.087999  0.000000      0.002778
  0.128709  0.087347  0.000000      0.002778
  0.129085  0.086695  0.000000      0.002778
  0.129462  0.086043  0.000000      0.002778
  0.129838  0.085392  0.000000      0.002778
  0.130214  0.084740  0.000000      0.002778
  0.130591  0.084088  0.000000      0.002778
  0.130967  0.083436  0.000000      0.002778
  0.131343  0.082784  0.000000      0.002778
  0.131720  0.082132  0.000000      0.002778
  0.132096  0.081480  0.000000      0.002778
  0.132472  0.080829  0.000000      0.002778
  0.132849  0.080177  0.000000      0.002778
  0.133225  0.079525  0.000000      0.002778
  0.133601  0.078873  0.000000      0.002778
  0.133978  0.078221  0.000000      0.002778
  0.134354  0.077569  0.000000      0.002778
  0.134354  0.077569  0.000000      0.002778
  0.133225  0.076918  0.000000      0.002778
  0.132096  0.076266  0.000000      0.002778
  0.130967  0.075614  0.000000      0.002778
  0.129838  0.074962  0.000000      0.002778
  0.128709  0.074310  0.000000      0.002778
  0.127580  0.073658  0.000000      0.002778
  0.126451  0.073006  0.000000      0.002778
  0.125322  0.072355  0.000000      0.002778
  0.124193  0.071703  0.000000      0.002778
  0.123064  0.071051  0.000000      0.002778
  0.121935  0.070399  0.000000      0.002778
  0.120806  0.069747  0.000000      0.002778
  0.119677  0.069095  0.000000      0.002778
  0.118548  0.068444  0.000000      0.002778
  0.117419  0.067792  0.000000      0.002778
  0.116290  0.067140  0.000000      0.002778
  0.115161  0.066488  0.000000      0.002778
  0.114032  0.065836  0.000000      0.002778
  0.112903  0.065184  0.000000      0.002778
  0.111774  0.064533  0.000000      0.002778
  0.110645  0.063881  0.000000      0.002778
  0.109516  0.063229  0.000000      0.002778
  0.108387  0.062577  0.000000      0.002778
  0.107258  0.061925  0.000000      0.002778
  0.106128  0.061273  0.000000      0.002778
  0.104999  0.060621  0.000000      0.002778
  0.103870  0.059970  0.000000      0.002778
  0.102741  0.059318  0.000000      0.002778
  0.101612  0.058666  0.000000      0.002778
  0.100483  0.058014  0.000000      0.002778
  0.099354  0.057362  0.000000      0.002778
  0.098225  0.056710  0.000000      0.002778
  0.097096  0.056059  0.000000      0.002778
  0.095967  0.055407  0.000000      0.002778
  0.094838  0.054755  0.000000      0.002778
  0.093709  0.054103  0.000000      0.002778
  0.092580  0.053451  0.000000      0.002778
  0.091451  0.052799  0.000000      0.002778
  0.090322  0.052147  0.000000      0.002778
  0.089193  0.051496  0.000000      0.002778
  0.088064  0.050844  0.000000      0.002778
  0.086935  0.050192  0.000000      0.002778
  0.085806  0.049540  0.000000      0.002778
  0.084677  0.048888  0.000000      0.002778
  0.083548  0.048236  0.000000      0.002778
  0.082419  0.047585  0.000000      0.002778
  0.081290  0.046933  0.000000      0.002778
  0.080161  0.046281  0.000000      0.002778
  0.079032  0.045629  0.000000      0.002778
  0.077903  0.044977  0.000000      0.002778
  0.076774  0.044325  0.000000      0.002778
  0.075645  0.043674  0.000000      0.002778
  0.074516  0.043022  0.000000      0.002778
  0.073387  0.042370  0.000000      0.002778
  0.072258  0.041718  0.000000      0.002778
  0.071129  0.041066  0.000000      0.002778
  0.070000  0.040414  0.000000      0.002778
  0.068871  0.039762  0.000000      0.002778
  0.067742  0.039111  0.000000      0.002778
  0.066613  0.038459  0.000000      0.002778
  0.065484  0.037807  0.000000      0.002778
  0.064355  0.037155  0.000000      0.002778
  0.063225  0.036503  0.000000      0.002778
  0.062096  0.035851  0.000000      0.002778
  0.060967  0.035200  0.000000      0.002778
  0.059838  0.034548  0.000000      0.002778
  0.058709  0.033896  0.000000      0.002778
  0.057580  0.033244  0.000000      0.002778
  0.056451  0.032592  0.000000      0.002778
  0.055322  0.031940  0.000000      0.002778
  0.054193  0.031288  0.000000      0.002778
  0.053064  0.030637  0.000000      0.002778
  0.051935  0.029985  0.000000      0.002778
  0.050806  0.029333  0.000000      0.002778
  0.049677  0.028681  0.000000      0.002778
  0.048548  0.028029  0.000000      0.002778
  0.047419  0.027377  0.000000      0.002778
  0.046290  0.026726  0.000000      0.002778
  0.045161  0.026074  0.000000      0.002778
  0.044032  0.025422  0.000000      0.002778
  0.042903  0.024770  0.000000      0.002778
  0.041774  0.024118  0.000000      0.002778
  0.040645  0.023466  0.000000      0.002778
  0.039516  0.022815  0.000000      0.002778
  0.038387  0.022163  0.000000      0.002778
  0.037258  0.021511  0.000000      0.002778
  0.036129  0.020859  0.000000      0.002778
  0.035000  0.020207  0.000000      0.002778
  0.033871  0.019555  0.000000      0.002778
  0.032742  0.018903  0.000000      0.002778
  0.031613  0.018252  0.000000      0.002778
  0.030484  0.017600  0.000000      0.002778
  0.029355  0.016948  0.000000      0.002778
  0.028226  0.016296  0.000000      0.002778
  0.027097  0.015644  0.000000      0.002778
  0.025968  0.014992  0.000000      0.002778
  0.024839  0.014341  0.000000      0.002778
  0.023710  0.013689  0.000000      0.002778
  0.022581  0.013037  0.000000      0.002778
  0.021452  0.012385  0.000000      0.002778
  0.020322  0.011733  0.000000      0.002778
  0.019193  0.011081  0.000000      0.002778
  0.018064  0.010429  0.000000      0.002778
  0.016935  0.009778  0.000000      0.002778
  0.015806  0.009126  0.000000      0.002778
  0.014677  0.008474  0.000000      0.002778
  0.013548  0.007822  0.000000      0.002778
  0.012419  0.007170  0.000000      0.002778
  0.011290  0.006518  0.000000      0.002778
  0.010161  0.005867  0.000000      0.002778
  0.009032  0.005215  0.000000      0.002778
  0.007903  0.004563  0.000000      0.002778
  0.006774  0.003911  0.000000      0.002778
  0.005645  0.003259  0.000000      0.002778
  0.004516  0.002607  0.000000      0.002778
  0.003387  0.001956  0.000000      0.002778
  0.002258  0.001304  0.000000      0.002778
  0.001129  0.000652  0.000000      0.002778
  0.000000  0.000000  0.000000      0.002778



--------------------------------------------------------------------------------------------------------




 Dimension of arrays:
   k-points           NKPTS =    360   k-points in BZ     NKDIM =    360   number of bands    NBANDS=     36
   number of dos      NEDOS =    301   number of ions     NIONS =      3
   non local maximal  LDIM  =      6   non local SUM 2l+1 LMDIM =     18
   total plane-waves  NPLWV = 151200
   max r-space proj   IRMAX =      1   max aug-charges    IRDMAX=  37687
   dimension x,y,z NGX =    30 NGY =   30 NGZ =  168
   dimension x,y,z NGXF=    60 NGYF=   60 NGZF=  336
   support grid    NGXF=    60 NGYF=   60 NGZF=  336
   ions per type =               1   2
   NGX,Y,Z   is equivalent  to a cutoff of  13.40, 13.40, 13.71 a.u.
   NGXF,Y,Z  is equivalent  to a cutoff of  26.80, 26.80, 27.43 a.u.

 SYSTEM =  PtS2                                    
 POSCAR =  generated by phonopy                    

 Startparameter for this run:
   NWRITE =      2    write-flag & timer
   PREC   = accura    normal or accurate (medium, high low for compatibility)
   ISTART =      0    job   : 0-new  1-cont  2-samecut
   ICHARG =     11    charge: 1-file 2-atom 10-const
   ISPIN  =      1    spin polarized calculation?
   LNONCOLLINEAR =      T non collinear calculations
   LSORBIT =      T    spin-orbit coupling
   INIWAV =      1    electr: 0-lowe 1-rand  2-diag
   LASPH  =      T    aspherical Exc in radial PAW
 Electronic Relaxation 1
   ENCUT  =  600.0 eV  44.10 Ry    6.64 a.u.   7.43  7.43 40.67*2*pi/ulx,y,z
   ENINI  =  600.0     initial cutoff
   ENAUG  =  446.8 eV  augmentation charge cutoff
   NELM   =    100;   NELMIN=  5; NELMDL= -5     # of ELM steps 
   EDIFF  = 0.1E-07   stopping-criterion for ELM
   LREAL  =      F    real-space projection
   NLSPLINE    = F    spline interpolate recip. space projectors
   LCOMPAT=      F    compatible to vasp.4.4
   GGA_COMPAT  = T    GGA compatible to vasp.4.4-vasp.4.6
   LMAXPAW     = -100 max onsite density
   LMAXMIX     =    4 max onsite mixed and CHGCAR
   VOSKOWN=      0    Vosko Wilk Nusair interpolation
   ROPT   =    0.00000   0.00000
 Ionic relaxation
   EDIFFG = 0.1E-06   stopping-criterion for IOM
   NSW    =      0    number of steps for IOM
   NBLOCK =      1;   KBLOCK =      1    inner block; outer block 
   IBRION =     -1    ionic relax: 0-MD 1-quasi-New 2-CG
   NFREE  =      0    steps in history (QN), initial steepest desc. (CG)
   ISIF   =      2    stress and relaxation
   IWAVPR =     10    prediction:  0-non 1-charg 2-wave 3-comb
   ISYM   =      2    0-nonsym 1-usesym 2-fastsym
   LCORR  =      T    Harris-Foulkes like correction to forces

   POTIM  = 0.5000    time-step for ionic-motion
   TEIN   =    0.0    initial temperature
   TEBEG  =    0.0;   TEEND  =   0.0 temperature during run
   SMASS  =  -3.00    Nose mass-parameter (am)
   estimated Nose-frequenzy (Omega)   =  0.10E-29 period in steps = 0.13E+47 mass=  -0.316E-27a.u.
   SCALEE = 1.0000    scale energy and forces
   NPACO  =    256;   APACO  = 10.0  distance and # of slots for P.C.
   PSTRESS=    0.0 pullay stress

  Mass of Ions in am
   POMASS = 195.08 78.96
  Ionic Valenz
   ZVAL   =  10.00  6.00
  Atomic Wigner-Seitz radii
   RWIGS  =  -1.00 -1.00
  virtual crystal weights 
   VCA    =   1.00  1.00
   NELECT =      22.0000    total number of electrons
   NUPDOWN=      -1.0000    fix difference up-down

 DOS related values:
   EMIN   =  10.00;   EMAX   =-10.00  energy-range for DOS
   EFERMI =   0.00;   METHOD = LEGACY      
   ISMEAR =     0;   SIGMA  =   0.05  broadening in eV -4-tet -1-fermi 0-gaus

 Electronic relaxation 2 (details)
   IALGO  =     38    algorithm
   LDIAG  =      T    sub-space diagonalisation (order eigenvalues)
   LSUBROT=      F    optimize rotation matrix (better conditioning)
   TURBO    =      0    0=normal 1=particle mesh
   IRESTART =      0    0=no restart 2=restart with 2 vectors
   NREBOOT  =      0    no. of reboots
   NMIN     =      0    reboot dimension
   EREF     =   0.00    reference energy to select bands
   IMIX   =      4    mixing-type and parameters
     AMIX     =   0.40;   BMIX     =  1.00
     AMIX_MAG =   1.60;   BMIX_MAG =  1.00
     AMIN     =   0.10
     WC   =   100.;   INIMIX=   1;  MIXPRE=   1;  MAXMIX= -45

 Intra band minimization:
   WEIMIN = 0.0000     energy-eigenvalue tresh-hold
   EBREAK =  0.69E-10  absolut break condition
   DEPER  =   0.30     relativ break condition  

   TIME   =   0.40     timestep for ELM

  volume/ion in A,a.u.               =      81.42       549.45
  Fermi-wavevector in a.u.,A,eV,Ry     =   0.733835  1.386746  7.326915  0.538513
  Thomas-Fermi vector in A             =   1.826640

 Write flags
   LWAVE        =      F    write WAVECAR
   LDOWNSAMPLE  =      F    k-point downsampling of WAVECAR
   LCHARG       =      T    write CHGCAR
   LVTOT        =      F    write LOCPOT, total local potential
   LVHAR        =      F    write LOCPOT, Hartree potential only
   LELF         =      F    write electronic localiz. function (ELF)
   LORBIT       =     11    0 simple, 1 ext, 2 COOP (PROOUT), +10 PAW based schemes


 Dipole corrections
   LMONO  =      F    monopole corrections only (constant potential shift)
   LDIPOL =      F    correct potential (dipole corrections)
   IDIPOL =      0    1-x, 2-y, 3-z, 4-all directions 
   EPSILON=  1.0000000 bulk dielectric constant

 LDA+U is selected, type is set to LDAUTYPE =  2
   angular momentum for each species LDAUL =     2   -1
   U (eV)           for each species LDAUU =   3.0  0.0
   J (eV)           for each species LDAUJ =   0.0  0.0
 Exchange correlation treatment:
   GGA     =    --    GGA type
   LEXCH   =     8    internal setting for exchange type
   LIBXC   =     F    Libxc                    
   VOSKOWN =     0    Vosko Wilk Nusair interpolation
   LHFCALC =     F    Hartree Fock is set to
   LHFONE  =     F    Hartree Fock one center treatment
   AEXX    =    0.0000 exact exchange contribution

 Linear response parameters
   LEPSILON=     F    determine dielectric tensor
   LRPA    =     F    only Hartree local field effects (RPA)
   LNABLA  =     F    use nabla operator in PAW spheres
   LVEL    =     F    velocity operator in full k-point grid
   CSHIFT  =0.1000    complex shift for real part using Kramers Kronig
   OMEGAMAX=  -1.0    maximum frequency
   DEG_THRESHOLD= 0.2000000E-02 threshold for treating states as degnerate
   RTIME   =   -0.100 relaxation time in fs
  (WPLASMAI=    0.000 imaginary part of plasma frequency in eV, 0.658/RTIME)
   DFIELD  = 0.0000000 0.0000000 0.0000000 field for delta impulse in time

  Optional k-point grid parameters
   LKPOINTS_OPT  =     F    use optional k-point grid
   KPOINTS_OPT_MODE=     1    mode for optional k-point grid

 Orbital magnetization related:
   ORBITALMAG=     F  switch on orbital magnetization
   LCHIMAG   =     F  perturbation theory with respect to B field
   DQ        =  0.001000  dq finite difference perturbation B field
   LLRAUG    =     F  two centre corrections for induced B field
   LBONE     =     F  B-component reconstruction in AE one-centre
   LVGVCALC  =     T  calculate vGv susceptibility
   LVGVAPPL  =     F  apply vGv susceptibility instead of pGv for G=0

 Random number generation:
   RANDOM_GENERATOR = DEFAULT
   PCG_SEED         = not used


--------------------------------------------------------------------------------------------------------


 Static calculation
 charge density and potential remain constant during run
 non collinear spin polarized calculation
 Variant of blocked Davidson
 Davidson routine will perform the subspace rotation
 perform sub-space diagonalisation
    after iterative eigenvector-optimisation
 no mixing
 using additional bands           25
 reciprocal scheme for non local part
 use partial core corrections
 calculate Harris-corrections to forces   (improved forces if not selfconsistent)
 use gradient corrections 
 WARNING: stress and forces are not correct
  (second derivative of E(xc) not defined)
 use of overlap-Matrix (Vanderbilt PP)
 Gauss-broadening in eV      SIGMA  =   0.05


--------------------------------------------------------------------------------------------------------


  energy-cutoff  :      600.00
  volume of cell :      244.26
      direct lattice vectors                 reciprocal lattice vectors
     3.721507784  0.000000000  0.000000000     0.268708292  0.155138805 -0.000000000
    -1.860753892  3.222920281  0.000000000     0.000000000  0.310277609  0.000000000
     0.000000000  0.000000000 20.364994653     0.000000000 -0.000000000  0.049103868

  length of vectors
     3.721507784  3.721507784 20.364994653     0.310277609  0.310277609  0.049103868



 k-points in units of 2pi/SCALE and weight: HEX (hexagonal) G-M-K-G                 
   0.00000000  0.00000000  0.00000000       0.003
   0.00075268  0.00130369  0.00000000       0.003
   0.00150537  0.00260737  0.00000000       0.003
   0.00225805  0.00391106  0.00000000       0.003
   0.00301074  0.00521475  0.00000000       0.003
   0.00376342  0.00651844  0.00000000       0.003
   0.00451611  0.00782212  0.00000000       0.003
   0.00526879  0.00912581  0.00000000       0.003
   0.00602147  0.01042950  0.00000000       0.003
   0.00677416  0.01173319  0.00000000       0.003
   0.00752684  0.01303687  0.00000000       0.003
   0.00827953  0.01434056  0.00000000       0.003
   0.00903221  0.01564425  0.00000000       0.003
   0.00978490  0.01694794  0.00000000       0.003
   0.01053758  0.01825162  0.00000000       0.003
   0.01129026  0.01955531  0.00000000       0.003
   0.01204295  0.02085900  0.00000000       0.003
   0.01279563  0.02216269  0.00000000       0.003
   0.01354832  0.02346637  0.00000000       0.003
   0.01430100  0.02477006  0.00000000       0.003
   0.01505369  0.02607375  0.00000000       0.003
   0.01580637  0.02737744  0.00000000       0.003
   0.01655905  0.02868112  0.00000000       0.003
   0.01731174  0.02998481  0.00000000       0.003
   0.01806442  0.03128850  0.00000000       0.003
   0.01881711  0.03259219  0.00000000       0.003
   0.01956979  0.03389587  0.00000000       0.003
   0.02032248  0.03519956  0.00000000       0.003
   0.02107516  0.03650325  0.00000000       0.003
   0.02182784  0.03780694  0.00000000       0.003
   0.02258053  0.03911062  0.00000000       0.003
   0.02333321  0.04041431  0.00000000       0.003
   0.02408590  0.04171800  0.00000000       0.003
   0.02483858  0.04302168  0.00000000       0.003
   0.02559127  0.04432537  0.00000000       0.003
   0.02634395  0.04562906  0.00000000       0.003
   0.02709663  0.04693275  0.00000000       0.003
   0.02784932  0.04823643  0.00000000       0.003
   0.02860200  0.04954012  0.00000000       0.003
   0.02935469  0.05084381  0.00000000       0.003
   0.03010737  0.05214750  0.00000000       0.003
   0.03086006  0.05345118  0.00000000       0.003
   0.03161274  0.05475487  0.00000000       0.003
   0.03236542  0.05605856  0.00000000       0.003
   0.03311811  0.05736225  0.00000000       0.003
   0.03387079  0.05866593  0.00000000       0.003
   0.03462348  0.05996962  0.00000000       0.003
   0.03537616  0.06127331  0.00000000       0.003
   0.03612885  0.06257700  0.00000000       0.003
   0.03688153  0.06388068  0.00000000       0.003
   0.03763421  0.06518437  0.00000000       0.003
   0.03838690  0.06648806  0.00000000       0.003
   0.03913958  0.06779175  0.00000000       0.003
   0.03989227  0.06909543  0.00000000       0.003
   0.04064495  0.07039912  0.00000000       0.003
   0.04139764  0.07170281  0.00000000       0.003
   0.04215032  0.07300650  0.00000000       0.003
   0.04290300  0.07431018  0.00000000       0.003
   0.04365569  0.07561387  0.00000000       0.003
   0.04440837  0.07691756  0.00000000       0.003
   0.04516106  0.07822125  0.00000000       0.003
   0.04591374  0.07952493  0.00000000       0.003
   0.04666643  0.08082862  0.00000000       0.003
   0.04741911  0.08213231  0.00000000       0.003
   0.04817179  0.08343599  0.00000000       0.003
   0.04892448  0.08473968  0.00000000       0.003
   0.04967716  0.08604337  0.00000000       0.003
   0.05042985  0.08734706  0.00000000       0.003
   0.05118253  0.08865074  0.00000000       0.003
   0.05193522  0.08995443  0.00000000       0.003
   0.05268790  0.09125812  0.00000000       0.003
   0.05344058  0.09256181  0.00000000       0.003
   0.05419327  0.09386549  0.00000000       0.003
   0.05494595  0.09516918  0.00000000       0.003
   0.05569864  0.09647287  0.00000000       0.003
   0.05645132  0.09777656  0.00000000       0.003
   0.05720401  0.09908024  0.00000000       0.003
   0.05795669  0.10038393  0.00000000       0.003
   0.05870937  0.10168762  0.00000000       0.003
   0.05946206  0.10299131  0.00000000       0.003
   0.06021474  0.10429499  0.00000000       0.003
   0.06096743  0.10559868  0.00000000       0.003
   0.06172011  0.10690237  0.00000000       0.003
   0.06247280  0.10820606  0.00000000       0.003
   0.06322548  0.10950974  0.00000000       0.003
   0.06397816  0.11081343  0.00000000       0.003
   0.06473085  0.11211712  0.00000000       0.003
   0.06548353  0.11342081  0.00000000       0.003
   0.06623622  0.11472449  0.00000000       0.003
   0.06698890  0.11602818  0.00000000       0.003
   0.06774159  0.11733187  0.00000000       0.003
   0.06849427  0.11863556  0.00000000       0.003
   0.06924695  0.11993924  0.00000000       0.003
   0.06999964  0.12124293  0.00000000       0.003
   0.07075232  0.12254662  0.00000000       0.003
   0.07150501  0.12385031  0.00000000       0.003
   0.07225769  0.12515399  0.00000000       0.003
   0.07301038  0.12645768  0.00000000       0.003
   0.07376306  0.12776137  0.00000000       0.003
   0.07451574  0.12906505  0.00000000       0.003
   0.07526843  0.13036874  0.00000000       0.003
   0.07602111  0.13167243  0.00000000       0.003
   0.07677380  0.13297612  0.00000000       0.003
   0.07752648  0.13427980  0.00000000       0.003
   0.07827917  0.13558349  0.00000000       0.003
   0.07903185  0.13688718  0.00000000       0.003
   0.07978453  0.13819087  0.00000000       0.003
   0.08053722  0.13949455  0.00000000       0.003
   0.08128990  0.14079824  0.00000000       0.003
   0.08204259  0.14210193  0.00000000       0.003
   0.08279527  0.14340562  0.00000000       0.003
   0.08354796  0.14470930  0.00000000       0.003
   0.08430064  0.14601299  0.00000000       0.003
   0.08505332  0.14731668  0.00000000       0.003
   0.08580601  0.14862037  0.00000000       0.003
   0.08655869  0.14992405  0.00000000       0.003
   0.08731138  0.15122774  0.00000000       0.003
   0.08806406  0.15253143  0.00000000       0.003
   0.08881675  0.15383512  0.00000000       0.003
   0.08956943  0.15513880  0.00000000       0.003
   0.08956943  0.15513880  0.00000000       0.003
   0.08994577  0.15448696  0.00000000       0.003
   0.09032211  0.15383512  0.00000000       0.003
   0.09069846  0.15318327  0.00000000       0.003
   0.09107480  0.15253143  0.00000000       0.003
   0.09145114  0.15187958  0.00000000       0.003
   0.09182748  0.15122774  0.00000000       0.003
   0.09220382  0.15057590  0.00000000       0.003
   0.09258017  0.14992405  0.00000000       0.003
   0.09295651  0.14927221  0.00000000       0.003
   0.09333285  0.14862037  0.00000000       0.003
   0.09370919  0.14796852  0.00000000       0.003
   0.09408554  0.14731668  0.00000000       0.003
   0.09446188  0.14666483  0.00000000       0.003
   0.09483822  0.14601299  0.00000000       0.003
   0.09521456  0.14536115  0.00000000       0.003
   0.09559090  0.14470930  0.00000000       0.003
   0.09596725  0.14405746  0.00000000       0.003
   0.09634359  0.14340562  0.00000000       0.003
   0.09671993  0.14275377  0.00000000       0.003
   0.09709627  0.14210193  0.00000000       0.003
   0.09747261  0.14145009  0.00000000       0.003
   0.09784896  0.14079824  0.00000000       0.003
   0.09822530  0.14014640  0.00000000       0.003
   0.09860164  0.13949455  0.00000000       0.003
   0.09897798  0.13884271  0.00000000       0.003
   0.09935433  0.13819087  0.00000000       0.003
   0.09973067  0.13753902  0.00000000       0.003
   0.10010701  0.13688718  0.00000000       0.003
   0.10048335  0.13623534  0.00000000       0.003
   0.10085969  0.13558349  0.00000000       0.003
   0.10123604  0.13493165  0.00000000       0.003
   0.10161238  0.13427980  0.00000000       0.003
   0.10198872  0.13362796  0.00000000       0.003
   0.10236506  0.13297612  0.00000000       0.003
   0.10274141  0.13232427  0.00000000       0.003
   0.10311775  0.13167243  0.00000000       0.003
   0.10349409  0.13102059  0.00000000       0.003
   0.10387043  0.13036874  0.00000000       0.003
   0.10424677  0.12971690  0.00000000       0.003
   0.10462312  0.12906505  0.00000000       0.003
   0.10499946  0.12841321  0.00000000       0.003
   0.10537580  0.12776137  0.00000000       0.003
   0.10575214  0.12710952  0.00000000       0.003
   0.10612848  0.12645768  0.00000000       0.003
   0.10650483  0.12580584  0.00000000       0.003
   0.10688117  0.12515399  0.00000000       0.003
   0.10725751  0.12450215  0.00000000       0.003
   0.10763385  0.12385031  0.00000000       0.003
   0.10801020  0.12319846  0.00000000       0.003
   0.10838654  0.12254662  0.00000000       0.003
   0.10876288  0.12189477  0.00000000       0.003
   0.10913922  0.12124293  0.00000000       0.003
   0.10951556  0.12059109  0.00000000       0.003
   0.10989191  0.11993924  0.00000000       0.003
   0.11026825  0.11928740  0.00000000       0.003
   0.11064459  0.11863556  0.00000000       0.003
   0.11102093  0.11798371  0.00000000       0.003
   0.11139727  0.11733187  0.00000000       0.003
   0.11177362  0.11668002  0.00000000       0.003
   0.11214996  0.11602818  0.00000000       0.003
   0.11252630  0.11537634  0.00000000       0.003
   0.11290264  0.11472449  0.00000000       0.003
   0.11327899  0.11407265  0.00000000       0.003
   0.11365533  0.11342081  0.00000000       0.003
   0.11403167  0.11276896  0.00000000       0.003
   0.11440801  0.11211712  0.00000000       0.003
   0.11478435  0.11146527  0.00000000       0.003
   0.11516070  0.11081343  0.00000000       0.003
   0.11553704  0.11016159  0.00000000       0.003
   0.11591338  0.10950974  0.00000000       0.003
   0.11628972  0.10885790  0.00000000       0.003
   0.11666606  0.10820606  0.00000000       0.003
   0.11704241  0.10755421  0.00000000       0.003
   0.11741875  0.10690237  0.00000000       0.003
   0.11779509  0.10625053  0.00000000       0.003
   0.11817143  0.10559868  0.00000000       0.003
   0.11854778  0.10494684  0.00000000       0.003
   0.11892412  0.10429499  0.00000000       0.003
   0.11930046  0.10364315  0.00000000       0.003
   0.11967680  0.10299131  0.00000000       0.003
   0.12005314  0.10233946  0.00000000       0.003
   0.12042949  0.10168762  0.00000000       0.003
   0.12080583  0.10103578  0.00000000       0.003
   0.12118217  0.10038393  0.00000000       0.003
   0.12155851  0.09973209  0.00000000       0.003
   0.12193485  0.09908024  0.00000000       0.003
   0.12231120  0.09842840  0.00000000       0.003
   0.12268754  0.09777656  0.00000000       0.003
   0.12306388  0.09712471  0.00000000       0.003
   0.12344022  0.09647287  0.00000000       0.003
   0.12381657  0.09582103  0.00000000       0.003
   0.12419291  0.09516918  0.00000000       0.003
   0.12456925  0.09451734  0.00000000       0.003
   0.12494559  0.09386549  0.00000000       0.003
   0.12532193  0.09321365  0.00000000       0.003
   0.12569828  0.09256181  0.00000000       0.003
   0.12607462  0.09190996  0.00000000       0.003
   0.12645096  0.09125812  0.00000000       0.003
   0.12682730  0.09060628  0.00000000       0.003
   0.12720365  0.08995443  0.00000000       0.003
   0.12757999  0.08930259  0.00000000       0.003
   0.12795633  0.08865075  0.00000000       0.003
   0.12833267  0.08799890  0.00000000       0.003
   0.12870901  0.08734706  0.00000000       0.003
   0.12908536  0.08669521  0.00000000       0.003
   0.12946170  0.08604337  0.00000000       0.003
   0.12983804  0.08539153  0.00000000       0.003
   0.13021438  0.08473968  0.00000000       0.003
   0.13059072  0.08408784  0.00000000       0.003
   0.13096707  0.08343600  0.00000000       0.003
   0.13134341  0.08278415  0.00000000       0.003
   0.13171975  0.08213231  0.00000000       0.003
   0.13209609  0.08148046  0.00000000       0.003
   0.13247244  0.08082862  0.00000000       0.003
   0.13284878  0.08017678  0.00000000       0.003
   0.13322512  0.07952493  0.00000000       0.003
   0.13360146  0.07887309  0.00000000       0.003
   0.13397780  0.07822125  0.00000000       0.003
   0.13435415  0.07756940  0.00000000       0.003
   0.13435415  0.07756940  0.00000000       0.003
   0.13322512  0.07691756  0.00000000       0.003
   0.13209609  0.07626571  0.00000000       0.003
   0.13096707  0.07561387  0.00000000       0.003
   0.12983804  0.07496203  0.00000000       0.003
   0.12870901  0.07431018  0.00000000       0.003
   0.12757999  0.07365834  0.00000000       0.003
   0.12645096  0.07300650  0.00000000       0.003
   0.12532193  0.07235465  0.00000000       0.003
   0.12419291  0.07170281  0.00000000       0.003
   0.12306388  0.07105097  0.00000000       0.003
   0.12193486  0.07039912  0.00000000       0.003
   0.12080583  0.06974728  0.00000000       0.003
   0.11967680  0.06909543  0.00000000       0.003
   0.11854778  0.06844359  0.00000000       0.003
   0.11741875  0.06779175  0.00000000       0.003
   0.11628972  0.06713990  0.00000000       0.003
   0.11516070  0.06648806  0.00000000       0.003
   0.11403167  0.06583622  0.00000000       0.003
   0.11290264  0.06518437  0.00000000       0.003
   0.11177362  0.06453253  0.00000000       0.003
   0.11064459  0.06388068  0.00000000       0.003
   0.10951556  0.06322884  0.00000000       0.003
   0.10838654  0.06257700  0.00000000       0.003
   0.10725751  0.06192515  0.00000000       0.003
   0.10612849  0.06127331  0.00000000       0.003
   0.10499946  0.06062147  0.00000000       0.003
   0.10387043  0.05996962  0.00000000       0.003
   0.10274141  0.05931778  0.00000000       0.003
   0.10161238  0.05866593  0.00000000       0.003
   0.10048335  0.05801409  0.00000000       0.003
   0.09935433  0.05736225  0.00000000       0.003
   0.09822530  0.05671040  0.00000000       0.003
   0.09709627  0.05605856  0.00000000       0.003
   0.09596725  0.05540672  0.00000000       0.003
   0.09483822  0.05475487  0.00000000       0.003
   0.09370919  0.05410303  0.00000000       0.003
   0.09258017  0.05345118  0.00000000       0.003
   0.09145114  0.05279934  0.00000000       0.003
   0.09032211  0.05214750  0.00000000       0.003
   0.08919309  0.05149565  0.00000000       0.003
   0.08806406  0.05084381  0.00000000       0.003
   0.08693504  0.05019197  0.00000000       0.003
   0.08580601  0.04954012  0.00000000       0.003
   0.08467698  0.04888828  0.00000000       0.003
   0.08354796  0.04823644  0.00000000       0.003
   0.08241893  0.04758459  0.00000000       0.003
   0.08128990  0.04693275  0.00000000       0.003
   0.08016088  0.04628090  0.00000000       0.003
   0.07903185  0.04562906  0.00000000       0.003
   0.07790282  0.04497722  0.00000000       0.003
   0.07677380  0.04432537  0.00000000       0.003
   0.07564477  0.04367353  0.00000000       0.003
   0.07451574  0.04302169  0.00000000       0.003
   0.07338672  0.04236984  0.00000000       0.003
   0.07225769  0.04171800  0.00000000       0.003
   0.07112867  0.04106615  0.00000000       0.003
   0.06999964  0.04041431  0.00000000       0.003
   0.06887061  0.03976247  0.00000000       0.003
   0.06774159  0.03911062  0.00000000       0.003
   0.06661256  0.03845878  0.00000000       0.003
   0.06548353  0.03780694  0.00000000       0.003
   0.06435451  0.03715509  0.00000000       0.003
   0.06322548  0.03650325  0.00000000       0.003
   0.06209645  0.03585140  0.00000000       0.003
   0.06096743  0.03519956  0.00000000       0.003
   0.05983840  0.03454772  0.00000000       0.003
   0.05870937  0.03389587  0.00000000       0.003
   0.05758035  0.03324403  0.00000000       0.003
   0.05645132  0.03259219  0.00000000       0.003
   0.05532230  0.03194034  0.00000000       0.003
   0.05419327  0.03128850  0.00000000       0.003
   0.05306424  0.03063665  0.00000000       0.003
   0.05193522  0.02998481  0.00000000       0.003
   0.05080619  0.02933297  0.00000000       0.003
   0.04967716  0.02868112  0.00000000       0.003
   0.04854814  0.02802928  0.00000000       0.003
   0.04741911  0.02737744  0.00000000       0.003
   0.04629008  0.02672559  0.00000000       0.003
   0.04516106  0.02607375  0.00000000       0.003
   0.04403203  0.02542190  0.00000000       0.003
   0.04290300  0.02477006  0.00000000       0.003
   0.04177398  0.02411822  0.00000000       0.003
   0.04064495  0.02346637  0.00000000       0.003
   0.03951593  0.02281453  0.00000000       0.003
   0.03838690  0.02216269  0.00000000       0.003
   0.03725787  0.02151084  0.00000000       0.003
   0.03612885  0.02085900  0.00000000       0.003
   0.03499982  0.02020716  0.00000000       0.003
   0.03387079  0.01955531  0.00000000       0.003
   0.03274177  0.01890347  0.00000000       0.003
   0.03161274  0.01825162  0.00000000       0.003
   0.03048371  0.01759978  0.00000000       0.003
   0.02935469  0.01694794  0.00000000       0.003
   0.02822566  0.01629609  0.00000000       0.003
   0.02709663  0.01564425  0.00000000       0.003
   0.02596761  0.01499241  0.00000000       0.003
   0.02483858  0.01434056  0.00000000       0.003
   0.02370956  0.01368872  0.00000000       0.003
   0.02258053  0.01303687  0.00000000       0.003
   0.02145150  0.01238503  0.00000000       0.003
   0.02032248  0.01173319  0.00000000       0.003
   0.01919345  0.01108134  0.00000000       0.003
   0.01806442  0.01042950  0.00000000       0.003
   0.01693540  0.00977766  0.00000000       0.003
   0.01580637  0.00912581  0.00000000       0.003
   0.01467734  0.00847397  0.00000000       0.003
   0.01354832  0.00782212  0.00000000       0.003
   0.01241929  0.00717028  0.00000000       0.003
   0.01129026  0.00651844  0.00000000       0.003
   0.01016124  0.00586659  0.00000000       0.003
   0.00903221  0.00521475  0.00000000       0.003
   0.00790319  0.00456291  0.00000000       0.003
   0.00677416  0.00391106  0.00000000       0.003
   0.00564513  0.00325922  0.00000000       0.003
   0.00451611  0.00260737  0.00000000       0.003
   0.00338708  0.00195553  0.00000000       0.003
   0.00225805  0.00130369  0.00000000       0.003
   0.00112903  0.00065184  0.00000000       0.003
   0.00000000  0.00000000  0.00000000       0.003

 k-points in reciprocal lattice and weights: HEX (hexagonal) G-M-K-G                 
   0.00000000  0.00000000  0.00000000       0.003
   0.00280112  0.00280112  0.00000000       0.003
   0.00560224  0.00560224  0.00000000       0.003
   0.00840336  0.00840336  0.00000000       0.003
   0.01120448  0.01120448  0.00000000       0.003
   0.01400560  0.01400560  0.00000000       0.003
   0.01680672  0.01680672  0.00000000       0.003
   0.01960784  0.01960784  0.00000000       0.003
   0.02240896  0.02240896  0.00000000       0.003
   0.02521008  0.02521008  0.00000000       0.003
   0.02801120  0.02801120  0.00000000       0.003
   0.03081232  0.03081232  0.00000000       0.003
   0.03361345  0.03361345  0.00000000       0.003
   0.03641457  0.03641457  0.00000000       0.003
   0.03921569  0.03921569  0.00000000       0.003
   0.04201681  0.04201681  0.00000000       0.003
   0.04481793  0.04481793  0.00000000       0.003
   0.04761905  0.04761905  0.00000000       0.003
   0.05042017  0.05042017  0.00000000       0.003
   0.05322129  0.05322129  0.00000000       0.003
   0.05602241  0.05602241  0.00000000       0.003
   0.05882353  0.05882353  0.00000000       0.003
   0.06162465  0.06162465  0.00000000       0.003
   0.06442577  0.06442577  0.00000000       0.003
   0.06722689  0.06722689  0.00000000       0.003
   0.07002801  0.07002801  0.00000000       0.003
   0.07282913  0.07282913  0.00000000       0.003
   0.07563025  0.07563025  0.00000000       0.003
   0.07843137  0.07843137  0.00000000       0.003
   0.08123249  0.08123249  0.00000000       0.003
   0.08403361  0.08403361  0.00000000       0.003
   0.08683473  0.08683473  0.00000000       0.003
   0.08963585  0.08963585  0.00000000       0.003
   0.09243697  0.09243697  0.00000000       0.003
[...]
  0.000   0.000   0.000   0.000   0.000   0.000   0.000   0.000   0.000   0.000   0.000   0.000   0.000   0.000   0.000   0.000
  0.000   0.000   0.000   0.000   0.000   0.000   0.000   0.000   0.000   0.000   0.000   0.000   0.000   0.000   0.000   0.000
  0.000   0.000   0.000   0.000   0.000   0.000   0.000   0.000   0.000   0.000   0.000   0.000   0.000   0.000   0.000   0.000
  0.000   0.000   0.000   0.000   0.000   0.000   0.000   0.000   0.000   0.000   0.000   0.000   0.000   0.000   0.000   0.000
  0.000   0.000   0.000   0.000   0.000   0.000   0.000   0.000   0.000   0.000   0.000   0.000   0.000   0.000   0.000   0.000
  0.000   0.000   0.000   0.000   0.000   0.000   0.000   0.000   0.000   0.000   0.000   0.000   0.000   0.000   0.000   0.000
  0.000   0.000   0.000   0.000   0.000   0.000   0.000   0.000   0.000   0.000   0.000   0.000   0.000   0.000   0.000   0.000
 total augmentation occupancy for first ion, spin component:           2
  0.180   0.000   0.000   0.000   0.000   0.000   0.000   0.000   0.000   0.000   0.000   0.000   0.000   0.000   0.000   0.000
  0.000   0.180   0.000   0.000   0.000   0.000   0.000   0.000   0.000   0.000   0.000   0.000   0.000   0.000   0.000   0.000
  0.000   0.000   0.180   0.000   0.000   0.000   0.000   0.000   0.000   0.000   0.000   0.000   0.000   0.000   0.000   0.000
  0.000   0.000   0.000   0.180   0.000   0.000   0.000   0.000   0.000   0.000   0.000   0.000   0.000   0.000   0.000   0.000
  0.000   0.000   0.000   0.000   0.180   0.000   0.000   0.000   0.000   0.000   0.000   0.000   0.000   0.000   0.000   0.000
  0.000   0.000   0.000   0.000   0.000   0.000   0.000   0.000   0.000   0.000   0.000   0.000   0.000   0.000   0.000   0.000
  0.000   0.000   0.000   0.000   0.000   0.000   0.000   0.000   0.000   0.000   0.000   0.000   0.000   0.000   0.000   0.000
  0.000   0.000   0.000   0.000   0.000   0.000   0.000   0.000   0.000   0.000   0.000   0.000   0.000   0.000   0.000   0.000
  0.000   0.000   0.000   0.000   0.000   0.000   0.000   0.000   0.000   0.000   0.000   0.000   0.000   0.000   0.000   0.000
  0.000   0.000   0.000   0.000   0.000   0.000   0.000   0.000   0.000   0.000   0.000   0.000   0.000   0.000   0.000   0.000
  0.000   0.000   0.000   0.000   0.000   0.000   0.000   0.000   0.000   0.000   0.100   0.000   0.000   0.000   0.000   0.000
  0.000   0.000   0.000   0.000   0.000   0.000   0.000   0.000   0.000   0.000   0.000   0.000   0.000   0.000   0.000   0.000
  0.000   0.000   0.000   0.000   0.000   0.000   0.000   0.000   0.000   0.000   0.000   0.000   0.000   0.000   0.000   0.000
  0.000   0.000   0.000   0.000   0.000   0.000   0.000   0.000   0.000   0.000   0.000   0.000   0.000   0.000   0.000   0.000
  0.000   0.000   0.000   0.000   0.000   0.000   0.000   0.000   0.000   0.000   0.000   0.000   0.000   0.000   0.000   0.000
  0.000   0.000   0.000   0.000   0.000   0.000   0.000   0.000   0.000   0.000   0.000   0.000   0.000   0.000   0.000   0.000
  0.000   0.000   0.000   0.000   0.000   0.000   0.000   0.000   0.000   0.000   0.000   0.000   0.000   0.000   0.000   0.000
  0.000   0.000   0.000   0.000   0.000   0.000   0.000   0.000   0.000   0.000   0.000   0.000   0.000   0.000   0.000   0.000
 total augmentation occupancy for first ion, spin component:           3
  0.180   0.000   0.000   0.000   0.000   0.000   0.000   0.000   0.000   0.000   0.000   0.000   0.000   0.000   0.000   0.000
  0.000   0.180   0.000   0.000   0.000   0.000   0.000   0.000   0.000   0.000   0.000   0.000   0.000   0.000   0.000   0.000
  0.000   0.000   0.180   0.000   0.000   0.000   0.000   0.000   0.000   0.000   0.000   0.000   0.000   0.000   0.000   0.000
  0.000   0.000   0.000   0.180   0.000   0.000   0.000   0.000   0.000   0.000   0.000   0.000   0.000   0.000   0.000   0.000
  0.000   0.000   0.000   0.000   0.180   0.000   0.000   0.000   0.000   0.000   0.000   0.000   0.000   0.000   0.000   0.000
  0.000   0.000   0.000   0.000   0.000   0.000   0.000   0.000   0.000   0.000   0.000   0.000   0.000   0.000   0.000   0.000
  0.000   0.000   0.000   0.000   0.000   0.000   0.000   0.000   0.000   0.000   0.000   0.000   0.000   0.000   0.000   0.000
  0.000   0.000   0.000   0.000   0.000   0.000   0.000   0.000   0.000   0.000   0.000   0.000   0.000   0.000   0.000   0.000
  0.000   0.000   0.000   0.000   0.000   0.000   0.000   0.000   0.000   0.000   0.000   0.000   0.000   0.000   0.000   0.000
  0.000   0.000   0.000   0.000   0.000   0.000   0.000   0.000   0.000   0.000   0.000   0.000   0.000   0.000   0.000   0.000
  0.000   0.000   0.000   0.000   0.000   0.000   0.000   0.000   0.000   0.000   0.100   0.000   0.000   0.000   0.000   0.000
  0.000   0.000   0.000   0.000   0.000   0.000   0.000   0.000   0.000   0.000   0.000   0.000   0.000   0.000   0.000   0.000
  0.000   0.000   0.000   0.000   0.000   0.000   0.000   0.000   0.000   0.000   0.000   0.000   0.000   0.000   0.000   0.000
  0.000   0.000   0.000   0.000   0.000   0.000   0.000   0.000   0.000   0.000   0.000   0.000   0.000   0.000   0.000   0.000
  0.000   0.000   0.000   0.000   0.000   0.000   0.000   0.000   0.000   0.000   0.000   0.000   0.000   0.000   0.000   0.000
  0.000   0.000   0.000   0.000   0.000   0.000   0.000   0.000   0.000   0.000   0.000   0.000   0.000   0.000   0.000   0.000
  0.000   0.000   0.000   0.000   0.000   0.000   0.000   0.000   0.000   0.000   0.000   0.000   0.000   0.000   0.000   0.000
  0.000   0.000   0.000   0.000   0.000   0.000   0.000   0.000   0.000   0.000   0.000   0.000   0.000   0.000   0.000   0.000
 total augmentation occupancy for first ion, spin component:           4
  0.180   0.000   0.000   0.000   0.000   0.000   0.000   0.000   0.000   0.000   0.000   0.000   0.000   0.000   0.000   0.000
  0.000   0.180   0.000   0.000   0.000   0.000   0.000   0.000   0.000   0.000   0.000   0.000   0.000   0.000   0.000   0.000
  0.000   0.000   0.180   0.000   0.000   0.000   0.000   0.000   0.000   0.000   0.000   0.000   0.000   0.000   0.000   0.000
  0.000   0.000   0.000   0.180   0.000   0.000   0.000   0.000   0.000   0.000   0.000   0.000   0.000   0.000   0.000   0.000
  0.000   0.000   0.000   0.000   0.180   0.000   0.000   0.000   0.000   0.000   0.000   0.000   0.000   0.000   0.000   0.000
  0.000   0.000   0.000   0.000   0.000   0.000   0.000   0.000   0.000   0.000   0.000   0.000   0.000   0.000   0.000   0.000
  0.000   0.000   0.000   0.000   0.000   0.000   0.000   0.000   0.000   0.000   0.000   0.000   0.000   0.000   0.000   0.000
  0.000   0.000   0.000   0.000   0.000   0.000   0.000   0.000   0.000   0.000   0.000   0.000   0.000   0.000   0.000   0.000
  0.000   0.000   0.000   0.000   0.000   0.000   0.000   0.000   0.000   0.000   0.000   0.000   0.000   0.000   0.000   0.000
  0.000   0.000   0.000   0.000   0.000   0.000   0.000   0.000   0.000   0.000   0.000   0.000   0.000   0.000   0.000   0.000
  0.000   0.000   0.000   0.000   0.000   0.000   0.000   0.000   0.000   0.000   0.100   0.000   0.000   0.000   0.000   0.000
  0.000   0.000   0.000   0.000   0.000   0.000   0.000   0.000   0.000   0.000   0.000   0.000   0.000   0.000   0.000   0.000
  0.000   0.000   0.000   0.000   0.000   0.000   0.000   0.000   0.000   0.000   0.000   0.000   0.000   0.000   0.000   0.000
  0.000   0.000   0.000   0.000   0.000   0.000   0.000   0.000   0.000   0.000   0.000   0.000   0.000   0.000   0.000   0.000
  0.000   0.000   0.000   0.000   0.000   0.000   0.000   0.000   0.000   0.000   0.000   0.000   0.000   0.000   0.000   0.000
  0.000   0.000   0.000   0.000   0.000   0.000   0.000   0.000   0.000   0.000   0.000   0.000   0.000   0.000   0.000   0.000
  0.000   0.000   0.000   0.000   0.000   0.000   0.000   0.000   0.000   0.000   0.000   0.000   0.000   0.000   0.000   0.000
  0.000   0.000   0.000   0.000   0.000   0.000   0.000   0.000   0.000   0.000   0.000   0.000   0.000   0.000   0.000   0.000


------------------------ aborting loop because EDIFF is reached ----------------------------------------





 total charge

# of ion       s       p       d       tot
------------------------------------------
    1        0.657   0.672   8.171   9.500
    2        1.474   2.259   0.053   3.785
    3        1.474   2.259   0.053   3.785
--------------------------------------------------
tot          3.604   5.189   8.277  17.070



 magnetization (x)

# of ion       s       p       d       tot
------------------------------------------
    1       -0.000   0.000  -0.000  -0.000
    2       -0.000  -0.000  -0.000  -0.000
    3       -0.000  -0.000  -0.000  -0.000
--------------------------------------------------
tot         -0.000   0.000  -0.000  -0.000



 magnetization (y)

# of ion       s       p       d       tot
------------------------------------------
    1       -0.000   0.000  -0.000  -0.000
    2        0.000   0.000  -0.000   0.000
    3        0.000   0.000  -0.000   0.000
--------------------------------------------------
tot         -0.000   0.000  -0.000   0.000



 magnetization (z)

# of ion       s       p       d       tot
------------------------------------------
    1       -0.000   0.000  -0.000   0.000
    2        0.000   0.000   0.000   0.000
    3        0.000   0.000   0.000   0.000
--------------------------------------------------
tot         -0.000   0.000  -0.000   0.000

    CHARGE:  cpu time      3.0070: real time      3.0274
    FORLOC:  cpu time      0.0043: real time      0.0044
    FORNL :  cpu time      4.0548: real time      4.0731
    STRESS:  cpu time      6.1965: real time      6.2229
    FORCOR:  cpu time      0.1708: real time      0.1719
    FORHAR:  cpu time      0.0181: real time      0.0182
    OFIELD:  cpu time      0.0020: real time      0.0020

  FORCE on cell =-STRESS in cart. coord.  units (eV):
  Direction    XX          YY          ZZ          XY          YZ          ZX
  --------------------------------------------------------------------------------------
  Alpha Z    19.03113    19.03113    19.03113
  Ewald    3825.20789  3825.20789 -4688.32846     0.00000     0.00000    -0.00000
  Hartree  4030.86406  4029.67827 -3934.55720     1.83095    -0.09731    -0.34054
  E(xc)     -89.18430   -89.03029   -89.64800    -0.24563    -0.06643    -0.21328
  Local   -8207.47645 -8202.13438  8264.37442    -8.55358    -1.25313    -3.82472
  n-local    92.80322    90.78786    91.69411     3.32572     0.68140     2.19045
  augment    43.61915    43.08377    43.87449     0.65478    -0.05197    -0.16054
  Kinetic   284.54083   283.81221   292.78171     1.79499     1.07447     3.48269
  Fock        0.00000     0.00000     0.00000     0.00000     0.00000     0.00000
  -------------------------------------------------------------------------------------
  Total      -0.59448     0.43646    -0.77780    -1.19277     0.28703     1.13405
  in kB      -3.89936     2.86285    -5.10184    -7.82371     1.88274     7.43859
  external pressure =       -2.05 kB  Pullay stress =        0.00 kB


 VOLUME and BASIS-vectors are now :
 -----------------------------------------------------------------------------
  energy-cutoff  :      600.00
  volume of cell :      244.26
      direct lattice vectors                 reciprocal lattice vectors
     3.721507784  0.000000000  0.000000000     0.268708292  0.155138805 -0.000000000
    -1.860753892  3.222920281  0.000000000     0.000000000  0.310277609  0.000000000
     0.000000000  0.000000000 20.364994653     0.000000000 -0.000000000  0.049103868

  length of vectors
     3.721507784  3.721507784 20.364994653     0.310277609  0.310277609  0.049103868


 FORCES acting on ions
    electron-ion (+dipol)            ewald-force                    non-local-force                 convergence-correction
 -----------------------------------------------------------------------------------------------
   -.964E-15 0.974E-14 -.192E-13   -.633E-14 0.691E-14 -.568E-13   0.000E+00 0.000E+00 0.000E+00   0.257E-12 0.946E-13 -.136E-11
   -.940E+00 -.438E+00 0.505E+03   0.364E-11 -.224E-11 -.509E+03   -.933E-01 0.956E-01 0.359E+01   0.490E+00 0.186E+00 0.110E+00
   0.940E+00 0.438E+00 -.505E+03   -.364E-11 0.224E-11 0.509E+03   0.933E-01 -.956E-01 -.359E+01   -.490E+00 -.186E+00 -.110E+00
 -----------------------------------------------------------------------------------------------
   -.159E-12 0.652E-14 0.809E-12   -.826E-14 0.493E-15 0.568E-13   0.000E+00 0.000E+00 0.000E+00   0.191E-12 0.213E-13 -.222E-11


 POSITION                                       TOTAL-FORCE (eV/Angst)
 -----------------------------------------------------------------------------------
      0.00000      0.00000      0.00000         0.000000      0.000000      0.000000
      1.86075      1.07431     19.04919        -0.543623     -0.156264      0.077357
      0.00000      2.14861      1.31581         0.543623      0.156264     -0.077357
 -----------------------------------------------------------------------------------
    total drift:                                0.000000      0.000000     -0.000000


--------------------------------------------------------------------------------------------------------



  FREE ENERGIE OF THE ION-ELECTRON SYSTEM (eV)
  ---------------------------------------------------
  free  energy   TOTEN  =       -12.46588389 eV

  energy  without entropy=      -12.46588389  energy(sigma->0) =      -12.46588389



--------------------------------------------------------------------------------------------------------


    POTLOK:  cpu time      0.8351: real time      0.8396


--------------------------------------------------------------------------------------------------------


     LOOP+:  cpu time    430.0982: real time    433.2388
    4ORBIT:  cpu time      0.0000: real time      0.0000

 Spin-Orbit-Coupling matrix elements

 Ion:    1  E_soc:     -0.7097000
 l=   1
     0.0000000    -0.0304930    -0.0318712
    -0.0304930     0.0000000    -0.0305429
    -0.0318712    -0.0305429     0.0000000
 l=   2
     0.0000000    -0.0197827     0.0000000    -0.0194291    -0.0658229
    -0.0197827     0.0000000    -0.0478074    -0.0237071    -0.0197741
     0.0000000    -0.0478074     0.0000000    -0.0466639     0.0000000
    -0.0194291    -0.0237071    -0.0466639     0.0000000    -0.0189558
    -0.0658229    -0.0197741     0.0000000    -0.0189558     0.0000000
 l=   3
     0.0000000     0.0000000     0.0000000     0.0000000     0.0000000     0.0000000     0.0000000
     0.0000000     0.0000000     0.0000000     0.0000000     0.0000000     0.0000000     0.0000000
     0.0000000     0.0000000     0.0000000     0.0000000     0.0000000     0.0000000     0.0000000
     0.0000000     0.0000000     0.0000000     0.0000000     0.0000000     0.0000000     0.0000000
     0.0000000     0.0000000     0.0000000     0.0000000     0.0000000     0.0000000     0.0000000
     0.0000000     0.0000000     0.0000000     0.0000000     0.0000000     0.0000000     0.0000000
     0.0000000     0.0000000     0.0000000     0.0000000     0.0000000     0.0000000     0.0000000

 Ion:    2  E_soc:     -0.0290775
 l=   1
     0.0000000    -0.0049562    -0.0043681
    -0.0049562     0.0000000    -0.0051775
    -0.0043681    -0.0051775     0.0000000
 l=   2
     0.0000000    -0.0000007     0.0000000    -0.0000008    -0.0000148
    -0.0000007     0.0000000    -0.0000061    -0.0000021    -0.0000030
     0.0000000    -0.0000061     0.0000000    -0.0000089     0.0000000
    -0.0000008    -0.0000021    -0.0000089     0.0000000    -0.0000006
    -0.0000148    -0.0000030     0.0000000    -0.0000006     0.0000000
 l=   3
     0.0000000     0.0000000     0.0000000     0.0000000     0.0000000     0.0000000     0.0000000
     0.0000000     0.0000000     0.0000000     0.0000000     0.0000000     0.0000000     0.0000000
     0.0000000     0.0000000     0.0000000     0.0000000     0.0000000     0.0000000     0.0000000
     0.0000000     0.0000000     0.0000000     0.0000000     0.0000000     0.0000000     0.0000000
     0.0000000     0.0000000     0.0000000     0.0000000     0.0000000     0.0000000     0.0000000
     0.0000000     0.0000000     0.0000000     0.0000000     0.0000000     0.0000000     0.0000000
     0.0000000     0.0000000     0.0000000     0.0000000     0.0000000     0.0000000     0.0000000

 Ion:    3  E_soc:     -0.0290775
 l=   1
     0.0000000    -0.0049562    -0.0043681
    -0.0049562     0.0000000    -0.0051775
    -0.0043681    -0.0051775     0.0000000
 l=   2
     0.0000000    -0.0000007     0.0000000    -0.0000008    -0.0000148
    -0.0000007     0.0000000    -0.0000061    -0.0000021    -0.0000030
     0.0000000    -0.0000061     0.0000000    -0.0000089     0.0000000
    -0.0000008    -0.0000021    -0.0000089     0.0000000    -0.0000006
    -0.0000148    -0.0000030     0.0000000    -0.0000006     0.0000000
 l=   3
     0.0000000     0.0000000     0.0000000     0.0000000     0.0000000     0.0000000     0.0000000
     0.0000000     0.0000000     0.0000000     0.0000000     0.0000000     0.0000000     0.0000000
     0.0000000     0.0000000     0.0000000     0.0000000     0.0000000     0.0000000     0.0000000
     0.0000000     0.0000000     0.0000000     0.0000000     0.0000000     0.0000000     0.0000000
     0.0000000     0.0000000     0.0000000     0.0000000     0.0000000     0.0000000     0.0000000
     0.0000000     0.0000000     0.0000000     0.0000000     0.0000000     0.0000000     0.0000000
     0.0000000     0.0000000     0.0000000     0.0000000     0.0000000     0.0000000     0.0000000



 total charge

# of ion       s       p       d       tot
------------------------------------------
    1        0.657   0.672   8.171   9.500
    2        1.474   2.259   0.053   3.785
    3        1.474   2.259   0.053   3.785
--------------------------------------------------
tot          3.604   5.189   8.277  17.070



 magnetization (x)

# of ion       s       p       d       tot
------------------------------------------
    1       -0.000   0.000  -0.000  -0.000
    2       -0.000  -0.000  -0.000  -0.000
    3       -0.000  -0.000  -0.000  -0.000
--------------------------------------------------
tot         -0.000   0.000  -0.000  -0.000



 magnetization (y)

# of ion       s       p       d       tot
------------------------------------------
    1       -0.000   0.000  -0.000  -0.000
    2        0.000   0.000  -0.000   0.000
    3        0.000   0.000  -0.000   0.000
--------------------------------------------------
tot         -0.000   0.000  -0.000   0.000



 magnetization (z)

# of ion       s       p       d       tot
------------------------------------------
    1       -0.000   0.000  -0.000   0.000
    2        0.000   0.000   0.000   0.000
    3        0.000   0.000   0.000   0.000
--------------------------------------------------
tot         -0.000   0.000  -0.000   0.000


 total amount of memory used by VASP MPI-rank0   300082. kBytes
=======================================================================

   base      :      30000. kBytes
   nonl-proj :     122813. kBytes
   fftplans  :       4637. kBytes
   grid      :      17740. kBytes
   one-center:         62. kBytes
   wavefun   :     124830. kBytes

  
  
 General timing and accounting informations for this job:
 ========================================================
  
                  Total CPU time used (sec):      463.360
                            User time (sec):      460.549
                          System time (sec):        2.811
                         Elapsed time (sec):      467.839
  
                   Maximum memory used (kb):      542508.
                   Average memory used (kb):          N/A
  
                          Minor page faults:       107292
                          Major page faults:           10
                 Voluntary context switches:         9792
