 vasp.6.4.2 20Jul23 (build Jun 20 2024 14:04:24) complex                         
 executed on             LinuxGNU date 2026.03.10  02:30:33
 running   28 mpi-ranks, with    1 threads/rank, on    1 nodes
 distrk:  each k-point on   28 cores,    1 groups
 distr:  one band on NCORE=   7 cores,    4 groups


--------------------------------------------------------------------------------------------------------


 INCAR:
   SYSTEM = PtS2
   ALGO = Normal
   LREAL = False
   PREC = Accurate
   ICHARG = 11
   ISYM = 2
   LASPH = True
   IBRION = -1
   ISIF = 2
   NSW = 0
   NELM = 100
   NELMIN = 5
   ISMEAR = 0
   SIGMA = 0.05
   ENCUT = 600
   EDIFF = 1E-8
   LCHARG = True
   LWAVE = False
   LSORBIT = True
   LORBIT = 11
   NPAR = 4
   LDAU = True
   LDAUTYPE = 2
   LDAUL = 2 -1
   LDAUU = 3.00 0.00
   LDAUJ = 0.00 0.00
   LMAXMIX = 4
   LDAUPRINT = 1

 POTCAR:    PAW_PBE Pt 04Feb2005                  
 POTCAR:    PAW_PBE Te 08Apr2002                  
 -----------------------------------------------------------------------------
|                                                                             |
|           W    W    AA    RRRRR   N    N  II  N    N   GGGG   !!!           |
|           W    W   A  A   R    R  NN   N  II  NN   N  G    G  !!!           |
|           W    W  A    A  R    R  N N  N  II  N N  N  G       !!!           |
|           W WW W  AAAAAA  RRRRR   N  N N  II  N  N N  G  GGG   !            |
|           WW  WW  A    A  R   R   N   NN  II  N   NN  G    G                |
|           W    W  A    A  R    R  N    N  II  N    N   GGGG   !!!           |
|                                                                             |
|     You use a magnetic or noncollinear calculation, but did not specify     |
|     the initial magnetic moment with the MAGMOM tag. Note that a            |
|     default of 1 will be used for all atoms. This ferromagnetic setup       |
|     may break the symmetry of the crystal, in particular it may rule        |
|     out finding an antiferromagnetic solution. Thence, we recommend         |
|     setting the initial magnetic moment manually or verifying carefully     |
|     that this magnetic setup is desired.                                    |
|                                                                             |
 -----------------------------------------------------------------------------

 POTCAR:    PAW_PBE Pt 04Feb2005                  
   SHA256 =  3ed90460adef76debcff1cfb73ee1349b515b1a3db03439735b44de3a8db7dc8 Pt/POTCAR             
   COPYR  = (c) Copyright 04Feb2005 Georg Kresse                                                    
   COPYR  = This file is part of the software VASP. Any use, copying, and all other rights are regul
   COPYR  = If you do not have a valid VASP license, you may not use, copy or distribute this file. 
   VRHFIN =Pt: s1d9                                                                                 
   LEXCH  = PE                                                                                      
   EATOM  =   729.1176 eV,   53.5886 Ry                                                             
                                                                                                    
   TITEL  = PAW_PBE Pt 04Feb2005                                                                    
   LULTRA =        F    use ultrasoft PP ?                                                          
   IUNSCR =        1    unscreen: 0-lin 1-nonlin 2-no                                               
   RPACOR =    2.330    partial core radius                                                         
   POMASS =  195.080; ZVAL   =   10.000    mass and valenz                                          
   RCORE  =    2.600    outmost cutoff radius                                                       
   RWIGS  =    2.750; RWIGS  =    1.455    wigner-seitz radius (au A)                               
   ENMAX  =  230.283; ENMIN  =  172.712 eV                                                          
   ICORE  =        3    local potential                                                             
   LCOR   =        T    correct aug charges                                                         
   LPAW   =        T    paw PP                                                                      
   EAUG   =  358.966                                                                                
   DEXC   =    0.000                                                                                
   RMAX   =    2.658    core radius for proj-oper                                                   
   RAUG   =    1.300    factor for augmentation sphere                                              
   RDEP   =    2.761    radius for radial grids                                                     
   RDEPT  =    2.203    core radius for aug-charge                                                  
                                                                                                    
   Atomic configuration                                                                             
   16 entries                                                                                       
     n  l   j            E        occ.                                                              
     1  0  0.50    -78401.1885   2.0000                                                             
     2  0  0.50    -13770.7750   2.0000                                                             
     2  1  1.50    -11931.0468   6.0000                                                             
     3  0  0.50     -3234.7234   2.0000                                                             
     3  1  1.50     -2699.2216   6.0000                                                             
     3  2  2.50     -2119.5714  10.0000                                                             
     4  0  0.50      -695.1528   2.0000                                                             
     4  1  1.50      -519.6034   6.0000                                                             
     4  2  2.50      -306.6786  10.0000                                                             
     4  3  3.50       -70.1041  14.0000                                                             
     5  0  0.50      -101.7747   2.0000                                                             
     5  1  1.50       -55.9873   6.0000                                                             
     5  2  2.50        -6.1423   9.0000                                                             
     6  0  0.50        -5.6573   1.0000                                                             
     6  1  1.50        -6.8029   0.0000                                                             
     5  3  2.50        -1.3606   0.0000                                                             
   Description                                                                                      
     l       E           TYP  RCUT    TYP  RCUT                                                     
     2     -6.1423404     23  2.500                                                                 
     2     -7.5029230     23  2.500                                                                 
     0     -5.6573207     23  2.500                                                                 
     0      0.7416693     23  2.500                                                                 
     1     -2.7211652     23  2.600                                                                 
     1     20.4087390     23  2.600                                                                 
     3     -1.3605826     23  2.500                                                                 
  local pseudopotential read in
  partial core-charges read in
  partial kinetic energy density read in
  atomic valenz-charges read in
  non local Contribution for L=           2  read in
    real space projection operators read in
  non local Contribution for L=           2  read in
    real space projection operators read in
  non local Contribution for L=           0  read in
    real space projection operators read in
  non local Contribution for L=           0  read in
    real space projection operators read in
  non local Contribution for L=           1  read in
    real space projection operators read in
  non local Contribution for L=           1  read in
    real space projection operators read in
    PAW grid and wavefunctions read in

   number of l-projection  operators is LMAX  =           6
   number of lm-projection operators is LMMAX =          18

 POTCAR:    PAW_PBE Te 08Apr2002                  
   SHA256 =  e13b0861f25acb1fe6cdc17458a3647985498b67a429eb77ddc1eac05a1775b1 Te/POTCAR             
   COPYR  = (c) Copyright 08Apr2002 Georg Kresse                                                    
   COPYR  = This file is part of the software VASP. Any use, copying, and all other rights are regul
   COPYR  = If you do not have a valid VASP license, you may not use, copy or distribute this file. 
   VRHFIN =Te: s2p4                                                                                 
   LEXCH  = PE                                                                                      
   EATOM  =   223.2721 eV,   16.4100 Ry                                                             
                                                                                                    
   TITEL  = PAW_PBE Te 08Apr2002                                                                    
   LULTRA =        F    use ultrasoft PP ?                                                          
   IUNSCR =        1    unscreen: 0-lin 1-nonlin 2-no                                               
   RPACOR =    2.200    partial core radius                                                         
   POMASS =  127.600; ZVAL   =    6.000    mass and valenz                                          
   RCORE  =    2.300    outmost cutoff radius                                                       
   RWIGS  =    2.900; RWIGS  =    1.535    wigner-seitz radius (au A)                               
   ENMAX  =  174.982; ENMIN  =  131.236 eV                                                          
   ICORE  =        3    local potential                                                             
   LCOR   =        T    correct aug charges                                                         
   LPAW   =        T    paw PP                                                                      
   EAUG   =  368.792                                                                                
   DEXC   =    0.000                                                                                
   RMAX   =    2.345    core radius for proj-oper                                                   
   RAUG   =    1.300    factor for augmentation sphere                                              
   RDEP   =    2.397    radius for radial grids                                                     
   RDEPT  =    2.174    core radius for aug-charge                                                  
                                                                                                    
   Atomic configuration                                                                             
   13 entries                                                                                       
     n  l   j            E        occ.                                                              
     1  0  0.50    -31621.2075   2.0000                                                             
     2  0  0.50     -4848.7941   2.0000                                                             
     2  1  1.50     -4352.1960   6.0000                                                             
     3  0  0.50      -964.9612   2.0000                                                             
     3  1  1.50      -803.6179   6.0000                                                             
     3  2  2.50      -559.8710  10.0000                                                             
     4  0  0.50      -164.3522   2.0000                                                             
     4  1  1.50      -114.3756   6.0000                                                             
     4  2  2.50       -41.6483  10.0000                                                             
     5  0  0.50       -15.1072   2.0000                                                             
     5  1  0.50        -5.9526   4.0000                                                             
     5  2  1.50        -5.4423   0.0000                                                             
     4  3  2.50        -5.4423   0.0000                                                             
   Description                                                                                      
     l       E           TYP  RCUT    TYP  RCUT                                                     
     0    -15.1072389     23  2.300                                                                 
     0    -16.4678215     23  2.300                                                                 
     1     -5.9526306     23  2.300                                                                 
     1     -2.4873968     23  2.300                                                                 
     2     -5.4423304     23  2.300                                                                 
     3     -1.3605826     23  2.300                                                                 
  local pseudopotential read in
  partial core-charges read in
  partial kinetic energy density read in
  atomic valenz-charges read in
  non local Contribution for L=           0  read in
    real space projection operators read in
  non local Contribution for L=           0  read in
    real space projection operators read in
  non local Contribution for L=           1  read in
    real space projection operators read in
  non local Contribution for L=           1  read in
    real space projection operators read in
  non local Contribution for L=           2  read in
    real space projection operators read in
    PAW grid and wavefunctions read in

   number of l-projection  operators is LMAX  =           5
   number of lm-projection operators is LMMAX =          13

  PAW_PBE Pt 04Feb2005                  :
 energy of atom  1       EATOM= -729.1176
 kinetic energy error for atom=    0.0012 (will be added to EATOM!!)
  PAW_PBE Te 08Apr2002                  :
 energy of atom  2       EATOM= -223.2721
 kinetic energy error for atom=    0.0004 (will be added to EATOM!!)


 POSCAR: PtTe
  positions in direct lattice
  No initial velocities read in
 exchange correlation table for  LEXCH =        8
   RHO(1)=    0.500       N(1)  =     2000
   RHO(2)=  100.500       N(2)  =     4000



--------------------------------------------------------------------------------------------------------


 ion  position               nearest neighbor table
   1  0.000  0.000  0.500-   2 2.70   3 2.70   3 2.70   2 2.70   3 2.70   2 2.70
   2  0.333  0.667  0.566-   1 2.70   1 2.70   1 2.70   3 3.61   3 3.61   3 3.61
   3  0.667  0.333  0.434-   1 2.70   1 2.70   1 2.70   2 3.61   2 3.61   2 3.61

  LATTYP: Found a hexagonal cell.
 ALAT       =     4.0019844253
 C/A-ratio  =     5.2256567989
  
  Lattice vectors:
  
 A1 = (   4.0019844253,   0.0000000000,   0.0000000000)
 A2 = (  -2.0009922127,   3.4658201779,   0.0000000000)
 A3 = (   0.0000000000,   0.0000000000,  20.9129971214)


Analysis of symmetry for initial positions (statically):
=====================================================================
 Subroutine PRICEL returns:
 Original cell was already a primitive cell.
 

 Routine SETGRP: Setting up the symmetry group for a 
 hexagonal supercell.


 Subroutine GETGRP returns: Found 12 space group operations
 (whereof 12 operations were pure point group operations)
 out of a pool of 24 trial point group operations.


The static configuration has the point symmetry D_3d.


Analysis of symmetry for dynamics (positions and initial velocities):
=====================================================================
 Subroutine PRICEL returns:
 Original cell was already a primitive cell.
 

 Routine SETGRP: Setting up the symmetry group for a 
 hexagonal supercell.


 Subroutine GETGRP returns: Found 12 space group operations
 (whereof 12 operations were pure point group operations)
 out of a pool of 24 trial point group operations.


The dynamic configuration has the point symmetry D_3d.


Analysis of structural, dynamic, and magnetic symmetry:
=====================================================================
 Subroutine PRICEL returns:
 Original cell was already a primitive cell.
 

 Routine SETGRP: Setting up the symmetry group for a 
 hexagonal supercell.


 Subroutine GETGRP returns: Found  2 space group operations
 (whereof  2 operations were pure point group operations)
 out of a pool of 24 trial point group operations.


The overall configuration has the point symmetry S_2 .


 Subroutine INISYM returns: Found  2 space group operations
 (whereof  2 operations are pure point group operations),
 and found     1 'primitive' translations


----------------------------------------------------------------------------------------

                                     Primitive cell                                     

  volume of cell :     290.0666

  direct lattice vectors                    reciprocal lattice vectors
     4.001984425  0.000000000  0.000000000     0.249876035  0.144265996 -0.000000000
    -2.000992213  3.465820178  0.000000000     0.000000000  0.288531992  0.000000000
     0.000000000  0.000000000 20.912997121     0.000000000 -0.000000000  0.047817154

  length of vectors
     4.001984425  4.001984425 20.912997121     0.288531992  0.288531992  0.047817154

  position of ions in fractional coordinates (direct lattice)
     0.000000000  0.000000000  0.500000000
     0.333333333  0.666666667  0.566459733
     0.666666667  0.333333333  0.433540267

  ion indices of the primitive-cell ions
   primitive index   ion index
                 1           1
                 2           2
                 3           3

----------------------------------------------------------------------------------------



 KPOINTS: HEX (hexagonal) G-M-K-G                 

Interpolating k-points between supplied coordinates.

 Line segments in fractional coordinates (reciprocal lattice):
    0.000000  0.000000  0.000000  ...  0.333333  0.333333  0.000000
    0.333333  0.333333  0.000000  ...  0.500000  0.000000  0.000000
    0.500000  0.000000  0.000000  ...  0.000000  0.000000  0.000000

 Generated   120 points on each line segment, for a total of    360 k-points:

 Following reciprocal coordinates:
            Coordinates               Weight
  0.000000  0.000000  0.000000      0.002778
  0.002801  0.002801  0.000000      0.002778
  0.005602  0.005602  0.000000      0.002778
  0.008403  0.008403  0.000000      0.002778
  0.011204  0.011204  0.000000      0.002778
  0.014006  0.014006  0.000000      0.002778
  0.016807  0.016807  0.000000      0.002778
  0.019608  0.019608  0.000000      0.002778
  0.022409  0.022409  0.000000      0.002778
  0.025210  0.025210  0.000000      0.002778
  0.028011  0.028011  0.000000      0.002778
  0.030812  0.030812  0.000000      0.002778
  0.033613  0.033613  0.000000      0.002778
  0.036415  0.036415  0.000000      0.002778
  0.039216  0.039216  0.000000      0.002778
  0.042017  0.042017  0.000000      0.002778
  0.044818  0.044818  0.000000      0.002778
  0.047619  0.047619  0.000000      0.002778
  0.050420  0.050420  0.000000      0.002778
  0.053221  0.053221  0.000000      0.002778
  0.056022  0.056022  0.000000      0.002778
  0.058824  0.058824  0.000000      0.002778
  0.061625  0.061625  0.000000      0.002778
  0.064426  0.064426  0.000000      0.002778
  0.067227  0.067227  0.000000      0.002778
  0.070028  0.070028  0.000000      0.002778
  0.072829  0.072829  0.000000      0.002778
  0.075630  0.075630  0.000000      0.002778
  0.078431  0.078431  0.000000      0.002778
  0.081232  0.081232  0.000000      0.002778
  0.084034  0.084034  0.000000      0.002778
  0.086835  0.086835  0.000000      0.002778
  0.089636  0.089636  0.000000      0.002778
  0.092437  0.092437  0.000000      0.002778
  0.095238  0.095238  0.000000      0.002778
  0.098039  0.098039  0.000000      0.002778
  0.100840  0.100840  0.000000      0.002778
  0.103641  0.103641  0.000000      0.002778
  0.106443  0.106443  0.000000      0.002778
  0.109244  0.109244  0.000000      0.002778
  0.112045  0.112045  0.000000      0.002778
  0.114846  0.114846  0.000000      0.002778
  0.117647  0.117647  0.000000      0.002778
  0.120448  0.120448  0.000000      0.002778
  0.123249  0.123249  0.000000      0.002778
  0.126050  0.126050  0.000000      0.002778
  0.128852  0.128852  0.000000      0.002778
  0.131653  0.131653  0.000000      0.002778
  0.134454  0.134454  0.000000      0.002778
  0.137255  0.137255  0.000000      0.002778
  0.140056  0.140056  0.000000      0.002778
  0.142857  0.142857  0.000000      0.002778
  0.145658  0.145658  0.000000      0.002778
  0.148459  0.148459  0.000000      0.002778
  0.151261  0.151261  0.000000      0.002778
  0.154062  0.154062  0.000000      0.002778
  0.156863  0.156863  0.000000      0.002778
  0.159664  0.159664  0.000000      0.002778
  0.162465  0.162465  0.000000      0.002778
  0.165266  0.165266  0.000000      0.002778
  0.168067  0.168067  0.000000      0.002778
  0.170868  0.170868  0.000000      0.002778
  0.173669  0.173669  0.000000      0.002778
  0.176471  0.176471  0.000000      0.002778
  0.179272  0.179272  0.000000      0.002778
  0.182073  0.182073  0.000000      0.002778
  0.184874  0.184874  0.000000      0.002778
  0.187675  0.187675  0.000000      0.002778
  0.190476  0.190476  0.000000      0.002778
  0.193277  0.193277  0.000000      0.002778
  0.196078  0.196078  0.000000      0.002778
  0.198880  0.198880  0.000000      0.002778
  0.201681  0.201681  0.000000      0.002778
  0.204482  0.204482  0.000000      0.002778
  0.207283  0.207283  0.000000      0.002778
  0.210084  0.210084  0.000000      0.002778
  0.212885  0.212885  0.000000      0.002778
  0.215686  0.215686  0.000000      0.002778
  0.218487  0.218487  0.000000      0.002778
  0.221289  0.221289  0.000000      0.002778
  0.224090  0.224090  0.000000      0.002778
  0.226891  0.226891  0.000000      0.002778
  0.229692  0.229692  0.000000      0.002778
  0.232493  0.232493  0.000000      0.002778
  0.235294  0.235294  0.000000      0.002778
  0.238095  0.238095  0.000000      0.002778
  0.240896  0.240896  0.000000      0.002778
  0.243697  0.243697  0.000000      0.002778
  0.246499  0.246499  0.000000      0.002778
  0.249300  0.249300  0.000000      0.002778
  0.252101  0.252101  0.000000      0.002778
  0.254902  0.254902  0.000000      0.002778
  0.257703  0.257703  0.000000      0.002778
  0.260504  0.260504  0.000000      0.002778
  0.263305  0.263305  0.000000      0.002778
  0.266106  0.266106  0.000000      0.002778
  0.268908  0.268908  0.000000      0.002778
  0.271709  0.271709  0.000000      0.002778
  0.274510  0.274510  0.000000      0.002778
  0.277311  0.277311  0.000000      0.002778
  0.280112  0.280112  0.000000      0.002778
  0.282913  0.282913  0.000000      0.002778
  0.285714  0.285714  0.000000      0.002778
  0.288515  0.288515  0.000000      0.002778
  0.291317  0.291317  0.000000      0.002778
  0.294118  0.294118  0.000000      0.002778
  0.296919  0.296919  0.000000      0.002778
  0.299720  0.299720  0.000000      0.002778
  0.302521  0.302521  0.000000      0.002778
  0.305322  0.305322  0.000000      0.002778
  0.308123  0.308123  0.000000      0.002778
  0.310924  0.310924  0.000000      0.002778
  0.313725  0.313725  0.000000      0.002778
  0.316527  0.316527  0.000000      0.002778
  0.319328  0.319328  0.000000      0.002778
  0.322129  0.322129  0.000000      0.002778
  0.324930  0.324930  0.000000      0.002778
  0.327731  0.327731  0.000000      0.002778
  0.330532  0.330532  0.000000      0.002778
  0.333333  0.333333  0.000000      0.002778
  0.333333  0.333333  0.000000      0.002778
  0.334734  0.330532  0.000000      0.002778
  0.336134  0.327731  0.000000      0.002778
  0.337535  0.324930  0.000000      0.002778
  0.338936  0.322129  0.000000      0.002778
  0.340336  0.319328  0.000000      0.002778
  0.341737  0.316527  0.000000      0.002778
  0.343137  0.313725  0.000000      0.002778
  0.344538  0.310924  0.000000      0.002778
  0.345938  0.308123  0.000000      0.002778
  0.347339  0.305322  0.000000      0.002778
  0.348739  0.302521  0.000000      0.002778
  0.350140  0.299720  0.000000      0.002778
  0.351541  0.296919  0.000000      0.002778
  0.352941  0.294118  0.000000      0.002778
  0.354342  0.291317  0.000000      0.002778
  0.355742  0.288515  0.000000      0.002778
  0.357143  0.285714  0.000000      0.002778
  0.358543  0.282913  0.000000      0.002778
  0.359944  0.280112  0.000000      0.002778
  0.361345  0.277311  0.000000      0.002778
  0.362745  0.274510  0.000000      0.002778
  0.364146  0.271709  0.000000      0.002778
  0.365546  0.268908  0.000000      0.002778
  0.366947  0.266106  0.000000      0.002778
  0.368347  0.263305  0.000000      0.002778
  0.369748  0.260504  0.000000      0.002778
  0.371148  0.257703  0.000000      0.002778
  0.372549  0.254902  0.000000      0.002778
  0.373950  0.252101  0.000000      0.002778
  0.375350  0.249300  0.000000      0.002778
  0.376751  0.246499  0.000000      0.002778
  0.378151  0.243697  0.000000      0.002778
  0.379552  0.240896  0.000000      0.002778
  0.380952  0.238095  0.000000      0.002778
  0.382353  0.235294  0.000000      0.002778
  0.383753  0.232493  0.000000      0.002778
  0.385154  0.229692  0.000000      0.002778
  0.386555  0.226891  0.000000      0.002778
  0.387955  0.224090  0.000000      0.002778
  0.389356  0.221289  0.000000      0.002778
  0.390756  0.218487  0.000000      0.002778
  0.392157  0.215686  0.000000      0.002778
  0.393557  0.212885  0.000000      0.002778
  0.394958  0.210084  0.000000      0.002778
  0.396359  0.207283  0.000000      0.002778
  0.397759  0.204482  0.000000      0.002778
  0.399160  0.201681  0.000000      0.002778
  0.400560  0.198880  0.000000      0.002778
  0.401961  0.196078  0.000000      0.002778
  0.403361  0.193277  0.000000      0.002778
  0.404762  0.190476  0.000000      0.002778
  0.406162  0.187675  0.000000      0.002778
  0.407563  0.184874  0.000000      0.002778
  0.408964  0.182073  0.000000      0.002778
  0.410364  0.179272  0.000000      0.002778
  0.411765  0.176471  0.000000      0.002778
  0.413165  0.173669  0.000000      0.002778
  0.414566  0.170868  0.000000      0.002778
  0.415966  0.168067  0.000000      0.002778
  0.417367  0.165266  0.000000      0.002778
  0.418768  0.162465  0.000000      0.002778
  0.420168  0.159664  0.000000      0.002778
  0.421569  0.156863  0.000000      0.002778
  0.422969  0.154062  0.000000      0.002778
  0.424370  0.151261  0.000000      0.002778
  0.425770  0.148459  0.000000      0.002778
  0.427171  0.145658  0.000000      0.002778
  0.428571  0.142857  0.000000      0.002778
  0.429972  0.140056  0.000000      0.002778
  0.431373  0.137255  0.000000      0.002778
  0.432773  0.134454  0.000000      0.002778
  0.434174  0.131653  0.000000      0.002778
  0.435574  0.128852  0.000000      0.002778
  0.436975  0.126050  0.000000      0.002778
  0.438375  0.123249  0.000000      0.002778
  0.439776  0.120448  0.000000      0.002778
  0.441176  0.117647  0.000000      0.002778
  0.442577  0.114846  0.000000      0.002778
  0.443978  0.112045  0.000000      0.002778
  0.445378  0.109244  0.000000      0.002778
  0.446779  0.106443  0.000000      0.002778
  0.448179  0.103641  0.000000      0.002778
  0.449580  0.100840  0.000000      0.002778
  0.450980  0.098039  0.000000      0.002778
  0.452381  0.095238  0.000000      0.002778
  0.453782  0.092437  0.000000      0.002778
  0.455182  0.089636  0.000000      0.002778
  0.456583  0.086835  0.000000      0.002778
  0.457983  0.084034  0.000000      0.002778
  0.459384  0.081232  0.000000      0.002778
  0.460784  0.078431  0.000000      0.002778
  0.462185  0.075630  0.000000      0.002778
  0.463585  0.072829  0.000000      0.002778
  0.464986  0.070028  0.000000      0.002778
  0.466387  0.067227  0.000000      0.002778
  0.467787  0.064426  0.000000      0.002778
  0.469188  0.061625  0.000000      0.002778
  0.470588  0.058824  0.000000      0.002778
  0.471989  0.056022  0.000000      0.002778
  0.473389  0.053221  0.000000      0.002778
  0.474790  0.050420  0.000000      0.002778
  0.476190  0.047619  0.000000      0.002778
  0.477591  0.044818  0.000000      0.002778
  0.478992  0.042017  0.000000      0.002778
  0.480392  0.039216  0.000000      0.002778
  0.481793  0.036415  0.000000      0.002778
  0.483193  0.033613  0.000000      0.002778
  0.484594  0.030812  0.000000      0.002778
  0.485994  0.028011  0.000000      0.002778
  0.487395  0.025210  0.000000      0.002778
  0.488796  0.022409  0.000000      0.002778
  0.490196  0.019608  0.000000      0.002778
  0.491597  0.016807  0.000000      0.002778
  0.492997  0.014006  0.000000      0.002778
  0.494398  0.011204  0.000000      0.002778
  0.495798  0.008403  0.000000      0.002778
  0.497199  0.005602  0.000000      0.002778
  0.498599  0.002801  0.000000      0.002778
  0.500000  0.000000  0.000000      0.002778
  0.500000  0.000000  0.000000      0.002778
  0.495798  0.000000  0.000000      0.002778
  0.491597  0.000000  0.000000      0.002778
  0.487395  0.000000  0.000000      0.002778
  0.483193  0.000000  0.000000      0.002778
  0.478992  0.000000  0.000000      0.002778
  0.474790  0.000000  0.000000      0.002778
  0.470588  0.000000  0.000000      0.002778
  0.466387  0.000000  0.000000      0.002778
  0.462185  0.000000  0.000000      0.002778
  0.457983  0.000000  0.000000      0.002778
  0.453782  0.000000  0.000000      0.002778
  0.449580  0.000000  0.000000      0.002778
  0.445378  0.000000  0.000000      0.002778
  0.441176  0.000000  0.000000      0.002778
  0.436975  0.000000  0.000000      0.002778
  0.432773  0.000000  0.000000      0.002778
  0.428571  0.000000  0.000000      0.002778
  0.424370  0.000000  0.000000      0.002778
  0.420168  0.000000  0.000000      0.002778
  0.415966  0.000000  0.000000      0.002778
  0.411765  0.000000  0.000000      0.002778
  0.407563  0.000000  0.000000      0.002778
  0.403361  0.000000  0.000000      0.002778
  0.399160  0.000000  0.000000      0.002778
  0.394958  0.000000  0.000000      0.002778
  0.390756  0.000000  0.000000      0.002778
  0.386555  0.000000  0.000000      0.002778
  0.382353  0.000000  0.000000      0.002778
  0.378151  0.000000  0.000000      0.002778
  0.373950  0.000000  0.000000      0.002778
  0.369748  0.000000  0.000000      0.002778
  0.365546  0.000000  0.000000      0.002778
  0.361345  0.000000  0.000000      0.002778
  0.357143  0.000000  0.000000      0.002778
  0.352941  0.000000  0.000000      0.002778
  0.348739  0.000000  0.000000      0.002778
  0.344538  0.000000  0.000000      0.002778
  0.340336  0.000000  0.000000      0.002778
  0.336134  0.000000  0.000000      0.002778
  0.331933  0.000000  0.000000      0.002778
  0.327731  0.000000  0.000000      0.002778
  0.323529  0.000000  0.000000      0.002778
  0.319328  0.000000  0.000000      0.002778
  0.315126  0.000000  0.000000      0.002778
  0.310924  0.000000  0.000000      0.002778
  0.306723  0.000000  0.000000      0.002778
  0.302521  0.000000  0.000000      0.002778
  0.298319  0.000000  0.000000      0.002778
  0.294118  0.000000  0.000000      0.002778
  0.289916  0.000000  0.000000      0.002778
  0.285714  0.000000  0.000000      0.002778
  0.281513  0.000000  0.000000      0.002778
  0.277311  0.000000  0.000000      0.002778
  0.273109  0.000000  0.000000      0.002778
  0.268908  0.000000  0.000000      0.002778
  0.264706  0.000000  0.000000      0.002778
  0.260504  0.000000  0.000000      0.002778
  0.256303  0.000000  0.000000      0.002778
  0.252101  0.000000  0.000000      0.002778
  0.247899  0.000000  0.000000      0.002778
  0.243697  0.000000  0.000000      0.002778
  0.239496  0.000000  0.000000      0.002778
  0.235294  0.000000  0.000000      0.002778
  0.231092  0.000000  0.000000      0.002778
  0.226891  0.000000  0.000000      0.002778
  0.222689  0.000000  0.000000      0.002778
  0.218487  0.000000  0.000000      0.002778
  0.214286  0.000000  0.000000      0.002778
  0.210084  0.000000  0.000000      0.002778
  0.205882  0.000000  0.000000      0.002778
  0.201681  0.000000  0.000000      0.002778
  0.197479  0.000000  0.000000      0.002778
  0.193277  0.000000  0.000000      0.002778
  0.189076  0.000000  0.000000      0.002778
  0.184874  0.000000  0.000000      0.002778
  0.180672  0.000000  0.000000      0.002778
  0.176471  0.000000  0.000000      0.002778
  0.172269  0.000000  0.000000      0.002778
  0.168067  0.000000  0.000000      0.002778
  0.163866  0.000000  0.000000      0.002778
  0.159664  0.000000  0.000000      0.002778
  0.155462  0.000000  0.000000      0.002778
  0.151261  0.000000  0.000000      0.002778
  0.147059  0.000000  0.000000      0.002778
  0.142857  0.000000  0.000000      0.002778
  0.138655  0.000000  0.000000      0.002778
  0.134454  0.000000  0.000000      0.002778
  0.130252  0.000000  0.000000      0.002778
  0.126050  0.000000  0.000000      0.002778
  0.121849  0.000000  0.000000      0.002778
  0.117647  0.000000  0.000000      0.002778
  0.113445  0.000000  0.000000      0.002778
  0.109244  0.000000  0.000000      0.002778
  0.105042  0.000000  0.000000      0.002778
  0.100840  0.000000  0.000000      0.002778
  0.096639  0.000000  0.000000      0.002778
  0.092437  0.000000  0.000000      0.002778
  0.088235  0.000000  0.000000      0.002778
  0.084034  0.000000  0.000000      0.002778
  0.079832  0.000000  0.000000      0.002778
  0.075630  0.000000  0.000000      0.002778
  0.071429  0.000000  0.000000      0.002778
  0.067227  0.000000  0.000000      0.002778
  0.063025  0.000000  0.000000      0.002778
  0.058824  0.000000  0.000000      0.002778
  0.054622  0.000000  0.000000      0.002778
  0.050420  0.000000  0.000000      0.002778
  0.046218  0.000000  0.000000      0.002778
  0.042017  0.000000  0.000000      0.002778
  0.037815  0.000000  0.000000      0.002778
  0.033613  0.000000  0.000000      0.002778
  0.029412  0.000000  0.000000      0.002778
  0.025210  0.000000  0.000000      0.002778
  0.021008  0.000000  0.000000      0.002778
  0.016807  0.000000  0.000000      0.002778
  0.012605  0.000000  0.000000      0.002778
  0.008403  0.000000  0.000000      0.002778
  0.004202  0.000000  0.000000      0.002778
  0.000000  0.000000  0.000000      0.002778

 Following cartesian coordinates:
            Coordinates               Weight
  0.000000  0.000000  0.000000      0.002778
  0.000700  0.001212  0.000000      0.002778
  0.001400  0.002425  0.000000      0.002778
  0.002100  0.003637  0.000000      0.002778
  0.002800  0.004849  0.000000      0.002778
  0.003500  0.006062  0.000000      0.002778
  0.004200  0.007274  0.000000      0.002778
  0.004900  0.008486  0.000000      0.002778
  0.005599  0.009699  0.000000      0.002778
  0.006299  0.010911  0.000000      0.002778
  0.006999  0.012123  0.000000      0.002778
  0.007699  0.013336  0.000000      0.002778
  0.008399  0.014548  0.000000      0.002778
  0.009099  0.015760  0.000000      0.002778
  0.009799  0.016972  0.000000      0.002778
  0.010499  0.018185  0.000000      0.002778
  0.011199  0.019397  0.000000      0.002778
  0.011899  0.020609  0.000000      0.002778
  0.012599  0.021822  0.000000      0.002778
  0.013299  0.023034  0.000000      0.002778
  0.013999  0.024246  0.000000      0.002778
  0.014699  0.025459  0.000000      0.002778
  0.015399  0.026671  0.000000      0.002778
  0.016098  0.027883  0.000000      0.002778
  0.016798  0.029096  0.000000      0.002778
  0.017498  0.030308  0.000000      0.002778
  0.018198  0.031520  0.000000      0.002778
  0.018898  0.032733  0.000000      0.002778
  0.019598  0.033945  0.000000      0.002778
  0.020298  0.035157  0.000000      0.002778
  0.020998  0.036370  0.000000      0.002778
  0.021698  0.037582  0.000000      0.002778
  0.022398  0.038794  0.000000      0.002778
  0.023098  0.040007  0.000000      0.002778
  0.023798  0.041219  0.000000      0.002778
  0.024498  0.042431  0.000000      0.002778
  0.025198  0.043643  0.000000      0.002778
  0.025898  0.044856  0.000000      0.002778
  0.026597  0.046068  0.000000      0.002778
  0.027297  0.047280  0.000000      0.002778
  0.027997  0.048493  0.000000      0.002778
  0.028697  0.049705  0.000000      0.002778
  0.029397  0.050917  0.000000      0.002778
  0.030097  0.052130  0.000000      0.002778
  0.030797  0.053342  0.000000      0.002778
  0.031497  0.054554  0.000000      0.002778
  0.032197  0.055767  0.000000      0.002778
  0.032897  0.056979  0.000000      0.002778
  0.033597  0.058191  0.000000      0.002778
  0.034297  0.059404  0.000000      0.002778
  0.034997  0.060616  0.000000      0.002778
  0.035697  0.061828  0.000000      0.002778
  0.036397  0.063041  0.000000      0.002778
  0.037096  0.064253  0.000000      0.002778
  0.037796  0.065465  0.000000      0.002778
  0.038496  0.066678  0.000000      0.002778
  0.039196  0.067890  0.000000      0.002778
  0.039896  0.069102  0.000000      0.002778
  0.040596  0.070315  0.000000      0.002778
  0.041296  0.071527  0.000000      0.002778
  0.041996  0.072739  0.000000      0.002778
  0.042696  0.073951  0.000000      0.002778
  0.043396  0.075164  0.000000      0.002778
  0.044096  0.076376  0.000000      0.002778
  0.044796  0.077588  0.000000      0.002778
  0.045496  0.078801  0.000000      0.002778
  0.046196  0.080013  0.000000      0.002778
  0.046896  0.081225  0.000000      0.002778
  0.047595  0.082438  0.000000      0.002778
  0.048295  0.083650  0.000000      0.002778
  0.048995  0.084862  0.000000      0.002778
  0.049695  0.086075  0.000000      0.002778
  0.050395  0.087287  0.000000      0.002778
  0.051095  0.088499  0.000000      0.002778
  0.051795  0.089712  0.000000      0.002778
  0.052495  0.090924  0.000000      0.002778
  0.053195  0.092136  0.000000      0.002778
  0.053895  0.093349  0.000000      0.002778
  0.054595  0.094561  0.000000      0.002778
  0.055295  0.095773  0.000000      0.002778
  0.055995  0.096986  0.000000      0.002778
  0.056695  0.098198  0.000000      0.002778
  0.057394  0.099410  0.000000      0.002778
  0.058094  0.100623  0.000000      0.002778
  0.058794  0.101835  0.000000      0.002778
  0.059494  0.103047  0.000000      0.002778
  0.060194  0.104259  0.000000      0.002778
  0.060894  0.105472  0.000000      0.002778
  0.061594  0.106684  0.000000      0.002778
  0.062294  0.107896  0.000000      0.002778
  0.062994  0.109109  0.000000      0.002778
  0.063694  0.110321  0.000000      0.002778
  0.064394  0.111533  0.000000      0.002778
  0.065094  0.112746  0.000000      0.002778
  0.065794  0.113958  0.000000      0.002778
  0.066494  0.115170  0.000000      0.002778
  0.067194  0.116383  0.000000      0.002778
  0.067893  0.117595  0.000000      0.002778
  0.068593  0.118807  0.000000      0.002778
  0.069293  0.120020  0.000000      0.002778
  0.069993  0.121232  0.000000      0.002778
  0.070693  0.122444  0.000000      0.002778
  0.071393  0.123657  0.000000      0.002778
  0.072093  0.124869  0.000000      0.002778
  0.072793  0.126081  0.000000      0.002778
  0.073493  0.127294  0.000000      0.002778
  0.074193  0.128506  0.000000      0.002778
  0.074893  0.129718  0.000000      0.002778
  0.075593  0.130930  0.000000      0.002778
  0.076293  0.132143  0.000000      0.002778
  0.076993  0.133355  0.000000      0.002778
  0.077693  0.134567  0.000000      0.002778
  0.078392  0.135780  0.000000      0.002778
  0.079092  0.136992  0.000000      0.002778
  0.079792  0.138204  0.000000      0.002778
  0.080492  0.139417  0.000000      0.002778
  0.081192  0.140629  0.000000      0.002778
  0.081892  0.141841  0.000000      0.002778
  0.082592  0.143054  0.000000      0.002778
  0.083292  0.144266  0.000000      0.002778
  0.083292  0.144266  0.000000      0.002778
  0.083642  0.143660  0.000000      0.002778
  0.083992  0.143054  0.000000      0.002778
  0.084342  0.142448  0.000000      0.002778
  0.084692  0.141841  0.000000      0.002778
  0.085042  0.141235  0.000000      0.002778
  0.085392  0.140629  0.000000      0.002778
  0.085742  0.140023  0.000000      0.002778
  0.086092  0.139417  0.000000      0.002778
  0.086442  0.138811  0.000000      0.002778
  0.086792  0.138204  0.000000      0.002778
  0.087142  0.137598  0.000000      0.002778
  0.087492  0.136992  0.000000      0.002778
  0.087842  0.136386  0.000000      0.002778
  0.088192  0.135780  0.000000      0.002778
  0.088542  0.135174  0.000000      0.002778
  0.088891  0.134567  0.000000      0.002778
  0.089241  0.133961  0.000000      0.002778
  0.089591  0.133355  0.000000      0.002778
  0.089941  0.132749  0.000000      0.002778
  0.090291  0.132143  0.000000      0.002778
  0.090641  0.131537  0.000000      0.002778
  0.090991  0.130930  0.000000      0.002778
  0.091341  0.130324  0.000000      0.002778
  0.091691  0.129718  0.000000      0.002778
  0.092041  0.129112  0.000000      0.002778
  0.092391  0.128506  0.000000      0.002778
  0.092741  0.127900  0.000000      0.002778
  0.093091  0.127294  0.000000      0.002778
  0.093441  0.126687  0.000000      0.002778
  0.093791  0.126081  0.000000      0.002778
  0.094141  0.125475  0.000000      0.002778
  0.094491  0.124869  0.000000      0.002778
  0.094841  0.124263  0.000000      0.002778
  0.095191  0.123657  0.000000      0.002778
  0.095541  0.123050  0.000000      0.002778
  0.095891  0.122444  0.000000      0.002778
  0.096241  0.121838  0.000000      0.002778
  0.096591  0.121232  0.000000      0.002778
  0.096941  0.120626  0.000000      0.002778
  0.097291  0.120020  0.000000      0.002778
  0.097641  0.119413  0.000000      0.002778
  0.097991  0.118807  0.000000      0.002778
  0.098341  0.118201  0.000000      0.002778
  0.098691  0.117595  0.000000      0.002778
  0.099041  0.116989  0.000000      0.002778
  0.099390  0.116383  0.000000      0.002778
  0.099740  0.115776  0.000000      0.002778
  0.100090  0.115170  0.000000      0.002778
  0.100440  0.114564  0.000000      0.002778
  0.100790  0.113958  0.000000      0.002778
  0.101140  0.113352  0.000000      0.002778
  0.101490  0.112746  0.000000      0.002778
  0.101840  0.112140  0.000000      0.002778
  0.102190  0.111533  0.000000      0.002778
  0.102540  0.110927  0.000000      0.002778
  0.102890  0.110321  0.000000      0.002778
  0.103240  0.109715  0.000000      0.002778
  0.103590  0.109109  0.000000      0.002778
  0.103940  0.108503  0.000000      0.002778
  0.104290  0.107896  0.000000      0.002778
  0.104640  0.107290  0.000000      0.002778
  0.104990  0.106684  0.000000      0.002778
  0.105340  0.106078  0.000000      0.002778
  0.105690  0.105472  0.000000      0.002778
  0.106040  0.104866  0.000000      0.002778
  0.106390  0.104259  0.000000      0.002778
  0.106740  0.103653  0.000000      0.002778
  0.107090  0.103047  0.000000      0.002778
  0.107440  0.102441  0.000000      0.002778
  0.107790  0.101835  0.000000      0.002778
  0.108140  0.101229  0.000000      0.002778
  0.108490  0.100623  0.000000      0.002778
  0.108840  0.100016  0.000000      0.002778
  0.109190  0.099410  0.000000      0.002778
  0.109539  0.098804  0.000000      0.002778
  0.109889  0.098198  0.000000      0.002778
  0.110239  0.097592  0.000000      0.002778
  0.110589  0.096986  0.000000      0.002778
  0.110939  0.096379  0.000000      0.002778
  0.111289  0.095773  0.000000      0.002778
  0.111639  0.095167  0.000000      0.002778
  0.111989  0.094561  0.000000      0.002778
  0.112339  0.093955  0.000000      0.002778
  0.112689  0.093349  0.000000      0.002778
  0.113039  0.092742  0.000000      0.002778
  0.113389  0.092136  0.000000      0.002778
  0.113739  0.091530  0.000000      0.002778
  0.114089  0.090924  0.000000      0.002778
  0.114439  0.090318  0.000000      0.002778
  0.114789  0.089712  0.000000      0.002778
  0.115139  0.089105  0.000000      0.002778
  0.115489  0.088499  0.000000      0.002778
  0.115839  0.087893  0.000000      0.002778
  0.116189  0.087287  0.000000      0.002778
  0.116539  0.086681  0.000000      0.002778
  0.116889  0.086075  0.000000      0.002778
  0.117239  0.085469  0.000000      0.002778
  0.117589  0.084862  0.000000      0.002778
  0.117939  0.084256  0.000000      0.002778
  0.118289  0.083650  0.000000      0.002778
  0.118639  0.083044  0.000000      0.002778
  0.118989  0.082438  0.000000      0.002778
  0.119339  0.081832  0.000000      0.002778
  0.119689  0.081225  0.000000      0.002778
  0.120038  0.080619  0.000000      0.002778
  0.120388  0.080013  0.000000      0.002778
  0.120738  0.079407  0.000000      0.002778
  0.121088  0.078801  0.000000      0.002778
  0.121438  0.078195  0.000000      0.002778
  0.121788  0.077588  0.000000      0.002778
  0.122138  0.076982  0.000000      0.002778
  0.122488  0.076376  0.000000      0.002778
  0.122838  0.075770  0.000000      0.002778
  0.123188  0.075164  0.000000      0.002778
  0.123538  0.074558  0.000000      0.002778
  0.123888  0.073951  0.000000      0.002778
  0.124238  0.073345  0.000000      0.002778
  0.124588  0.072739  0.000000      0.002778
  0.124938  0.072133  0.000000      0.002778
  0.124938  0.072133  0.000000      0.002778
  0.123888  0.071527  0.000000      0.002778
  0.122838  0.070921  0.000000      0.002778
  0.121788  0.070315  0.000000      0.002778
  0.120738  0.069708  0.000000      0.002778
  0.119689  0.069102  0.000000      0.002778
  0.118639  0.068496  0.000000      0.002778
  0.117589  0.067890  0.000000      0.002778
  0.116539  0.067284  0.000000      0.002778
  0.115489  0.066678  0.000000      0.002778
  0.114439  0.066071  0.000000      0.002778
  0.113389  0.065465  0.000000      0.002778
  0.112339  0.064859  0.000000      0.002778
  0.111289  0.064253  0.000000      0.002778
  0.110239  0.063647  0.000000      0.002778
  0.109190  0.063041  0.000000      0.002778
  0.108140  0.062434  0.000000      0.002778
  0.107090  0.061828  0.000000      0.002778
  0.106040  0.061222  0.000000      0.002778
  0.104990  0.060616  0.000000      0.002778
  0.103940  0.060010  0.000000      0.002778
  0.102890  0.059404  0.000000      0.002778
  0.101840  0.058797  0.000000      0.002778
  0.100790  0.058191  0.000000      0.002778
  0.099740  0.057585  0.000000      0.002778
  0.098691  0.056979  0.000000      0.002778
  0.097641  0.056373  0.000000      0.002778
  0.096591  0.055767  0.000000      0.002778
  0.095541  0.055161  0.000000      0.002778
  0.094491  0.054554  0.000000      0.002778
  0.093441  0.053948  0.000000      0.002778
  0.092391  0.053342  0.000000      0.002778
  0.091341  0.052736  0.000000      0.002778
  0.090291  0.052130  0.000000      0.002778
  0.089241  0.051524  0.000000      0.002778
  0.088192  0.050917  0.000000      0.002778
  0.087142  0.050311  0.000000      0.002778
  0.086092  0.049705  0.000000      0.002778
  0.085042  0.049099  0.000000      0.002778
  0.083992  0.048493  0.000000      0.002778
  0.082942  0.047887  0.000000      0.002778
  0.081892  0.047280  0.000000      0.002778
  0.080842  0.046674  0.000000      0.002778
  0.079792  0.046068  0.000000      0.002778
  0.078742  0.045462  0.000000      0.002778
  0.077693  0.044856  0.000000      0.002778
  0.076643  0.044250  0.000000      0.002778
  0.075593  0.043643  0.000000      0.002778
  0.074543  0.043037  0.000000      0.002778
  0.073493  0.042431  0.000000      0.002778
  0.072443  0.041825  0.000000      0.002778
  0.071393  0.041219  0.000000      0.002778
  0.070343  0.040613  0.000000      0.002778
  0.069293  0.040007  0.000000      0.002778
  0.068243  0.039400  0.000000      0.002778
  0.067194  0.038794  0.000000      0.002778
  0.066144  0.038188  0.000000      0.002778
  0.065094  0.037582  0.000000      0.002778
  0.064044  0.036976  0.000000      0.002778
  0.062994  0.036370  0.000000      0.002778
  0.061944  0.035763  0.000000      0.002778
  0.060894  0.035157  0.000000      0.002778
  0.059844  0.034551  0.000000      0.002778
  0.058794  0.033945  0.000000      0.002778
  0.057744  0.033339  0.000000      0.002778
  0.056695  0.032733  0.000000      0.002778
  0.055645  0.032126  0.000000      0.002778
  0.054595  0.031520  0.000000      0.002778
  0.053545  0.030914  0.000000      0.002778
  0.052495  0.030308  0.000000      0.002778
  0.051445  0.029702  0.000000      0.002778
  0.050395  0.029096  0.000000      0.002778
  0.049345  0.028490  0.000000      0.002778
  0.048295  0.027883  0.000000      0.002778
  0.047245  0.027277  0.000000      0.002778
  0.046196  0.026671  0.000000      0.002778
  0.045146  0.026065  0.000000      0.002778
  0.044096  0.025459  0.000000      0.002778
  0.043046  0.024853  0.000000      0.002778
  0.041996  0.024246  0.000000      0.002778
  0.040946  0.023640  0.000000      0.002778
  0.039896  0.023034  0.000000      0.002778
  0.038846  0.022428  0.000000      0.002778
  0.037796  0.021822  0.000000      0.002778
  0.036746  0.021216  0.000000      0.002778
  0.035697  0.020609  0.000000      0.002778
  0.034647  0.020003  0.000000      0.002778
  0.033597  0.019397  0.000000      0.002778
  0.032547  0.018791  0.000000      0.002778
  0.031497  0.018185  0.000000      0.002778
  0.030447  0.017579  0.000000      0.002778
  0.029397  0.016972  0.000000      0.002778
  0.028347  0.016366  0.000000      0.002778
  0.027297  0.015760  0.000000      0.002778
  0.026247  0.015154  0.000000      0.002778
  0.025198  0.014548  0.000000      0.002778
  0.024148  0.013942  0.000000      0.002778
  0.023098  0.013336  0.000000      0.002778
  0.022048  0.012729  0.000000      0.002778
  0.020998  0.012123  0.000000      0.002778
  0.019948  0.011517  0.000000      0.002778
  0.018898  0.010911  0.000000      0.002778
  0.017848  0.010305  0.000000      0.002778
  0.016798  0.009699  0.000000      0.002778
  0.015748  0.009092  0.000000      0.002778
  0.014699  0.008486  0.000000      0.002778
  0.013649  0.007880  0.000000      0.002778
  0.012599  0.007274  0.000000      0.002778
  0.011549  0.006668  0.000000      0.002778
  0.010499  0.006062  0.000000      0.002778
  0.009449  0.005455  0.000000      0.002778
  0.008399  0.004849  0.000000      0.002778
  0.007349  0.004243  0.000000      0.002778
  0.006299  0.003637  0.000000      0.002778
  0.005249  0.003031  0.000000      0.002778
  0.004200  0.002425  0.000000      0.002778
  0.003150  0.001818  0.000000      0.002778
  0.002100  0.001212  0.000000      0.002778
  0.001050  0.000606  0.000000      0.002778
  0.000000  0.000000  0.000000      0.002778



--------------------------------------------------------------------------------------------------------




 Dimension of arrays:
   k-points           NKPTS =    360   k-points in BZ     NKDIM =    360   number of bands    NBANDS=     36
   number of dos      NEDOS =    301   number of ions     NIONS =      3
   non local maximal  LDIM  =      6   non local SUM 2l+1 LMDIM =     18
   total plane-waves  NPLWV = 172032
   max r-space proj   IRMAX =      1   max aug-charges    IRDMAX=  36116
   dimension x,y,z NGX =    32 NGY =   32 NGZ =  168
   dimension x,y,z NGXF=    64 NGYF=   64 NGZF=  336
   support grid    NGXF=    64 NGYF=   64 NGZF=  336
   ions per type =               1   2
   NGX,Y,Z   is equivalent  to a cutoff of  13.29, 13.29, 13.36 a.u.
   NGXF,Y,Z  is equivalent  to a cutoff of  26.59, 26.59, 26.71 a.u.

 SYSTEM =  PtS2                                    
 POSCAR =  PtTe                                    

 Startparameter for this run:
   NWRITE =      2    write-flag & timer
   PREC   = accura    normal or accurate (medium, high low for compatibility)
   ISTART =      0    job   : 0-new  1-cont  2-samecut
   ICHARG =     11    charge: 1-file 2-atom 10-const
   ISPIN  =      1    spin polarized calculation?
   LNONCOLLINEAR =      T non collinear calculations
   LSORBIT =      T    spin-orbit coupling
   INIWAV =      1    electr: 0-lowe 1-rand  2-diag
   LASPH  =      T    aspherical Exc in radial PAW
 Electronic Relaxation 1
   ENCUT  =  600.0 eV  44.10 Ry    6.64 a.u.   7.99  7.99 41.77*2*pi/ulx,y,z
   ENINI  =  600.0     initial cutoff
   ENAUG  =  368.8 eV  augmentation charge cutoff
   NELM   =    100;   NELMIN=  5; NELMDL= -5     # of ELM steps 
   EDIFF  = 0.1E-07   stopping-criterion for ELM
   LREAL  =      F    real-space projection
   NLSPLINE    = F    spline interpolate recip. space projectors
   LCOMPAT=      F    compatible to vasp.4.4
   GGA_COMPAT  = T    GGA compatible to vasp.4.4-vasp.4.6
   LMAXPAW     = -100 max onsite density
   LMAXMIX     =    4 max onsite mixed and CHGCAR
   VOSKOWN=      0    Vosko Wilk Nusair interpolation
   ROPT   =    0.00000   0.00000
 Ionic relaxation
   EDIFFG = 0.1E-06   stopping-criterion for IOM
   NSW    =      0    number of steps for IOM
   NBLOCK =      1;   KBLOCK =      1    inner block; outer block 
   IBRION =     -1    ionic relax: 0-MD 1-quasi-New 2-CG
   NFREE  =      0    steps in history (QN), initial steepest desc. (CG)
   ISIF   =      2    stress and relaxation
   IWAVPR =     10    prediction:  0-non 1-charg 2-wave 3-comb
   ISYM   =      2    0-nonsym 1-usesym 2-fastsym
   LCORR  =      T    Harris-Foulkes like correction to forces

   POTIM  = 0.5000    time-step for ionic-motion
   TEIN   =    0.0    initial temperature
   TEBEG  =    0.0;   TEEND  =   0.0 temperature during run
   SMASS  =  -3.00    Nose mass-parameter (am)
   estimated Nose-frequenzy (Omega)   =  0.10E-29 period in steps = 0.13E+47 mass=  -0.366E-27a.u.
   SCALEE = 1.0000    scale energy and forces
   NPACO  =    256;   APACO  = 10.0  distance and # of slots for P.C.
   PSTRESS=    0.0 pullay stress

  Mass of Ions in am
   POMASS = 195.08127.60
  Ionic Valenz
   ZVAL   =  10.00  6.00
  Atomic Wigner-Seitz radii
   RWIGS  =  -1.00 -1.00
  virtual crystal weights 
   VCA    =   1.00  1.00
   NELECT =      22.0000    total number of electrons
   NUPDOWN=      -1.0000    fix difference up-down

 DOS related values:
   EMIN   =  10.00;   EMAX   =-10.00  energy-range for DOS
   EFERMI =   0.00;   METHOD = LEGACY      
   ISMEAR =     0;   SIGMA  =   0.05  broadening in eV -4-tet -1-fermi 0-gaus

 Electronic relaxation 2 (details)
   IALGO  =     38    algorithm
   LDIAG  =      T    sub-space diagonalisation (order eigenvalues)
   LSUBROT=      F    optimize rotation matrix (better conditioning)
   TURBO    =      0    0=normal 1=particle mesh
   IRESTART =      0    0=no restart 2=restart with 2 vectors
   NREBOOT  =      0    no. of reboots
   NMIN     =      0    reboot dimension
   EREF     =   0.00    reference energy to select bands
   IMIX   =      4    mixing-type and parameters
     AMIX     =   0.40;   BMIX     =  1.00
     AMIX_MAG =   1.60;   BMIX_MAG =  1.00
     AMIN     =   0.10
     WC   =   100.;   INIMIX=   1;  MIXPRE=   1;  MAXMIX= -45

 Intra band minimization:
   WEIMIN = 0.0000     energy-eigenvalue tresh-hold
   EBREAK =  0.69E-10  absolut break condition
   DEPER  =   0.30     relativ break condition  

   TIME   =   0.40     timestep for ELM

  volume/ion in A,a.u.               =      96.69       652.49
  Fermi-wavevector in a.u.,A,eV,Ry     =   0.692973  1.309530  6.533681  0.480212
  Thomas-Fermi vector in A             =   1.775056

 Write flags
   LWAVE        =      F    write WAVECAR
   LDOWNSAMPLE  =      F    k-point downsampling of WAVECAR
   LCHARG       =      T    write CHGCAR
   LVTOT        =      F    write LOCPOT, total local potential
   LVHAR        =      F    write LOCPOT, Hartree potential only
   LELF         =      F    write electronic localiz. function (ELF)
   LORBIT       =     11    0 simple, 1 ext, 2 COOP (PROOUT), +10 PAW based schemes


 Dipole corrections
   LMONO  =      F    monopole corrections only (constant potential shift)
   LDIPOL =      F    correct potential (dipole corrections)
   IDIPOL =      0    1-x, 2-y, 3-z, 4-all directions 
   EPSILON=  1.0000000 bulk dielectric constant

 LDA+U is selected, type is set to LDAUTYPE =  2
   angular momentum for each species LDAUL =     2   -1
   U (eV)           for each species LDAUU =   3.0  0.0
   J (eV)           for each species LDAUJ =   0.0  0.0
 Exchange correlation treatment:
   GGA     =    --    GGA type
   LEXCH   =     8    internal setting for exchange type
   LIBXC   =     F    Libxc                    
   VOSKOWN =     0    Vosko Wilk Nusair interpolation
   LHFCALC =     F    Hartree Fock is set to
   LHFONE  =     F    Hartree Fock one center treatment
   AEXX    =    0.0000 exact exchange contribution

 Linear response parameters
   LEPSILON=     F    determine dielectric tensor
   LRPA    =     F    only Hartree local field effects (RPA)
   LNABLA  =     F    use nabla operator in PAW spheres
   LVEL    =     F    velocity operator in full k-point grid
   CSHIFT  =0.1000    complex shift for real part using Kramers Kronig
   OMEGAMAX=  -1.0    maximum frequency
   DEG_THRESHOLD= 0.2000000E-02 threshold for treating states as degnerate
   RTIME   =   -0.100 relaxation time in fs
  (WPLASMAI=    0.000 imaginary part of plasma frequency in eV, 0.658/RTIME)
   DFIELD  = 0.0000000 0.0000000 0.0000000 field for delta impulse in time

  Optional k-point grid parameters
   LKPOINTS_OPT  =     F    use optional k-point grid
   KPOINTS_OPT_MODE=     1    mode for optional k-point grid

 Orbital magnetization related:
   ORBITALMAG=     F  switch on orbital magnetization
   LCHIMAG   =     F  perturbation theory with respect to B field
   DQ        =  0.001000  dq finite difference perturbation B field
   LLRAUG    =     F  two centre corrections for induced B field
   LBONE     =     F  B-component reconstruction in AE one-centre
   LVGVCALC  =     T  calculate vGv susceptibility
   LVGVAPPL  =     F  apply vGv susceptibility instead of pGv for G=0

 Random number generation:
   RANDOM_GENERATOR = DEFAULT
   PCG_SEED         = not used


--------------------------------------------------------------------------------------------------------


 Static calculation
 charge density and potential remain constant during run
 non collinear spin polarized calculation
 Variant of blocked Davidson
 Davidson routine will perform the subspace rotation
 perform sub-space diagonalisation
    after iterative eigenvector-optimisation
 no mixing
 using additional bands           25
 reciprocal scheme for non local part
 use partial core corrections
 calculate Harris-corrections to forces   (improved forces if not selfconsistent)
 use gradient corrections 
 WARNING: stress and forces are not correct
  (second derivative of E(xc) not defined)
 use of overlap-Matrix (Vanderbilt PP)
 Gauss-broadening in eV      SIGMA  =   0.05


--------------------------------------------------------------------------------------------------------


  energy-cutoff  :      600.00
  volume of cell :      290.07
      direct lattice vectors                 reciprocal lattice vectors
     4.001984425  0.000000000  0.000000000     0.249876035  0.144265996 -0.000000000
    -2.000992213  3.465820178  0.000000000     0.000000000  0.288531992  0.000000000
     0.000000000  0.000000000 20.912997121     0.000000000 -0.000000000  0.047817154

  length of vectors
     4.001984425  4.001984425 20.912997121     0.288531992  0.288531992  0.047817154



 k-points in units of 2pi/SCALE and weight: HEX (hexagonal) G-M-K-G                 
   0.00000000  0.00000000  0.00000000       0.003
   0.00069993  0.00121232  0.00000000       0.003
   0.00139987  0.00242464  0.00000000       0.003
   0.00209980  0.00363696  0.00000000       0.003
   0.00279973  0.00484928  0.00000000       0.003
   0.00349966  0.00606160  0.00000000       0.003
   0.00419960  0.00727392  0.00000000       0.003
   0.00489953  0.00848623  0.00000000       0.003
   0.00559946  0.00969855  0.00000000       0.003
   0.00629940  0.01091087  0.00000000       0.003
   0.00699933  0.01212319  0.00000000       0.003
   0.00769926  0.01333551  0.00000000       0.003
   0.00839919  0.01454783  0.00000000       0.003
   0.00909913  0.01576015  0.00000000       0.003
   0.00979906  0.01697247  0.00000000       0.003
   0.01049899  0.01818479  0.00000000       0.003
   0.01119893  0.01939711  0.00000000       0.003
   0.01189886  0.02060943  0.00000000       0.003
   0.01259879  0.02182175  0.00000000       0.003
   0.01329872  0.02303407  0.00000000       0.003
   0.01399866  0.02424639  0.00000000       0.003
   0.01469859  0.02545870  0.00000000       0.003
   0.01539852  0.02667102  0.00000000       0.003
   0.01609846  0.02788334  0.00000000       0.003
   0.01679839  0.02909566  0.00000000       0.003
   0.01749832  0.03030798  0.00000000       0.003
   0.01819825  0.03152030  0.00000000       0.003
   0.01889819  0.03273262  0.00000000       0.003
   0.01959812  0.03394494  0.00000000       0.003
   0.02029805  0.03515726  0.00000000       0.003
   0.02099799  0.03636958  0.00000000       0.003
   0.02169792  0.03758190  0.00000000       0.003
   0.02239785  0.03879422  0.00000000       0.003
   0.02309778  0.04000654  0.00000000       0.003
   0.02379772  0.04121886  0.00000000       0.003
   0.02449765  0.04243117  0.00000000       0.003
   0.02519758  0.04364349  0.00000000       0.003
   0.02589752  0.04485581  0.00000000       0.003
   0.02659745  0.04606813  0.00000000       0.003
   0.02729738  0.04728045  0.00000000       0.003
   0.02799731  0.04849277  0.00000000       0.003
   0.02869725  0.04970509  0.00000000       0.003
   0.02939718  0.05091741  0.00000000       0.003
   0.03009711  0.05212973  0.00000000       0.003
   0.03079705  0.05334205  0.00000000       0.003
   0.03149698  0.05455437  0.00000000       0.003
   0.03219691  0.05576669  0.00000000       0.003
   0.03289684  0.05697901  0.00000000       0.003
   0.03359678  0.05819133  0.00000000       0.003
   0.03429671  0.05940364  0.00000000       0.003
   0.03499664  0.06061596  0.00000000       0.003
   0.03569658  0.06182828  0.00000000       0.003
   0.03639651  0.06304060  0.00000000       0.003
   0.03709644  0.06425292  0.00000000       0.003
   0.03779637  0.06546524  0.00000000       0.003
   0.03849631  0.06667756  0.00000000       0.003
   0.03919624  0.06788988  0.00000000       0.003
   0.03989617  0.06910220  0.00000000       0.003
   0.04059611  0.07031452  0.00000000       0.003
   0.04129604  0.07152684  0.00000000       0.003
   0.04199597  0.07273916  0.00000000       0.003
   0.04269590  0.07395148  0.00000000       0.003
   0.04339584  0.07516380  0.00000000       0.003
   0.04409577  0.07637611  0.00000000       0.003
   0.04479570  0.07758843  0.00000000       0.003
   0.04549564  0.07880075  0.00000000       0.003
   0.04619557  0.08001307  0.00000000       0.003
   0.04689550  0.08122539  0.00000000       0.003
   0.04759543  0.08243771  0.00000000       0.003
   0.04829537  0.08365003  0.00000000       0.003
   0.04899530  0.08486235  0.00000000       0.003
   0.04969523  0.08607467  0.00000000       0.003
   0.05039517  0.08728699  0.00000000       0.003
   0.05109510  0.08849931  0.00000000       0.003
   0.05179503  0.08971163  0.00000000       0.003
   0.05249496  0.09092395  0.00000000       0.003
   0.05319490  0.09213627  0.00000000       0.003
   0.05389483  0.09334858  0.00000000       0.003
   0.05459476  0.09456090  0.00000000       0.003
   0.05529470  0.09577322  0.00000000       0.003
   0.05599463  0.09698554  0.00000000       0.003
   0.05669456  0.09819786  0.00000000       0.003
   0.05739449  0.09941018  0.00000000       0.003
   0.05809443  0.10062250  0.00000000       0.003
   0.05879436  0.10183482  0.00000000       0.003
   0.05949429  0.10304714  0.00000000       0.003
   0.06019423  0.10425946  0.00000000       0.003
   0.06089416  0.10547178  0.00000000       0.003
   0.06159409  0.10668410  0.00000000       0.003
   0.06229402  0.10789642  0.00000000       0.003
   0.06299396  0.10910874  0.00000000       0.003
   0.06369389  0.11032105  0.00000000       0.003
   0.06439382  0.11153337  0.00000000       0.003
   0.06509376  0.11274569  0.00000000       0.003
   0.06579369  0.11395801  0.00000000       0.003
   0.06649362  0.11517033  0.00000000       0.003
   0.06719355  0.11638265  0.00000000       0.003
   0.06789349  0.11759497  0.00000000       0.003
   0.06859342  0.11880729  0.00000000       0.003
   0.06929335  0.12001961  0.00000000       0.003
   0.06999329  0.12123193  0.00000000       0.003
   0.07069322  0.12244425  0.00000000       0.003
   0.07139315  0.12365657  0.00000000       0.003
   0.07209308  0.12486889  0.00000000       0.003
   0.07279302  0.12608121  0.00000000       0.003
   0.07349295  0.12729352  0.00000000       0.003
   0.07419288  0.12850584  0.00000000       0.003
   0.07489282  0.12971816  0.00000000       0.003
   0.07559275  0.13093048  0.00000000       0.003
   0.07629268  0.13214280  0.00000000       0.003
   0.07699262  0.13335512  0.00000000       0.003
   0.07769255  0.13456744  0.00000000       0.003
   0.07839248  0.13577976  0.00000000       0.003
   0.07909241  0.13699208  0.00000000       0.003
   0.07979235  0.13820440  0.00000000       0.003
   0.08049228  0.13941672  0.00000000       0.003
   0.08119221  0.14062904  0.00000000       0.003
   0.08189215  0.14184136  0.00000000       0.003
   0.08259208  0.14305368  0.00000000       0.003
   0.08329201  0.14426599  0.00000000       0.003
   0.08329201  0.14426599  0.00000000       0.003
   0.08364198  0.14365983  0.00000000       0.003
   0.08399194  0.14305368  0.00000000       0.003
   0.08434191  0.14244752  0.00000000       0.003
   0.08469188  0.14184136  0.00000000       0.003
   0.08504184  0.14123520  0.00000000       0.003
   0.08539181  0.14062904  0.00000000       0.003
   0.08574178  0.14002288  0.00000000       0.003
   0.08609174  0.13941672  0.00000000       0.003
   0.08644171  0.13881056  0.00000000       0.003
   0.08679168  0.13820440  0.00000000       0.003
   0.08714164  0.13759824  0.00000000       0.003
   0.08749161  0.13699208  0.00000000       0.003
   0.08784157  0.13638592  0.00000000       0.003
   0.08819154  0.13577976  0.00000000       0.003
   0.08854151  0.13517360  0.00000000       0.003
   0.08889147  0.13456744  0.00000000       0.003
   0.08924144  0.13396128  0.00000000       0.003
   0.08959141  0.13335512  0.00000000       0.003
   0.08994137  0.13274896  0.00000000       0.003
   0.09029134  0.13214280  0.00000000       0.003
   0.09064131  0.13153664  0.00000000       0.003
   0.09099127  0.13093048  0.00000000       0.003
   0.09134124  0.13032432  0.00000000       0.003
   0.09169121  0.12971816  0.00000000       0.003
   0.09204117  0.12911200  0.00000000       0.003
   0.09239114  0.12850584  0.00000000       0.003
   0.09274110  0.12789968  0.00000000       0.003
   0.09309107  0.12729352  0.00000000       0.003
   0.09344104  0.12668737  0.00000000       0.003
   0.09379100  0.12608121  0.00000000       0.003
   0.09414097  0.12547505  0.00000000       0.003
   0.09449094  0.12486889  0.00000000       0.003
   0.09484090  0.12426273  0.00000000       0.003
   0.09519087  0.12365657  0.00000000       0.003
   0.09554084  0.12305041  0.00000000       0.003
   0.09589080  0.12244425  0.00000000       0.003
   0.09624077  0.12183809  0.00000000       0.003
   0.09659074  0.12123193  0.00000000       0.003
   0.09694070  0.12062577  0.00000000       0.003
   0.09729067  0.12001961  0.00000000       0.003
   0.09764063  0.11941345  0.00000000       0.003
   0.09799060  0.11880729  0.00000000       0.003
   0.09834057  0.11820113  0.00000000       0.003
   0.09869053  0.11759497  0.00000000       0.003
   0.09904050  0.11698881  0.00000000       0.003
   0.09939047  0.11638265  0.00000000       0.003
   0.09974043  0.11577649  0.00000000       0.003
   0.10009040  0.11517033  0.00000000       0.003
   0.10044037  0.11456417  0.00000000       0.003
   0.10079033  0.11395801  0.00000000       0.003
   0.10114030  0.11335185  0.00000000       0.003
   0.10149027  0.11274569  0.00000000       0.003
   0.10184023  0.11213953  0.00000000       0.003
   0.10219020  0.11153337  0.00000000       0.003
   0.10254017  0.11092721  0.00000000       0.003
   0.10289013  0.11032106  0.00000000       0.003
   0.10324010  0.10971490  0.00000000       0.003
   0.10359006  0.10910874  0.00000000       0.003
   0.10394003  0.10850258  0.00000000       0.003
   0.10429000  0.10789642  0.00000000       0.003
   0.10463996  0.10729026  0.00000000       0.003
   0.10498993  0.10668410  0.00000000       0.003
   0.10533990  0.10607794  0.00000000       0.003
   0.10568986  0.10547178  0.00000000       0.003
   0.10603983  0.10486562  0.00000000       0.003
   0.10638980  0.10425946  0.00000000       0.003
   0.10673976  0.10365330  0.00000000       0.003
   0.10708973  0.10304714  0.00000000       0.003
   0.10743970  0.10244098  0.00000000       0.003
   0.10778966  0.10183482  0.00000000       0.003
   0.10813963  0.10122866  0.00000000       0.003
   0.10848959  0.10062250  0.00000000       0.003
   0.10883956  0.10001634  0.00000000       0.003
   0.10918953  0.09941018  0.00000000       0.003
   0.10953949  0.09880402  0.00000000       0.003
   0.10988946  0.09819786  0.00000000       0.003
   0.11023943  0.09759170  0.00000000       0.003
   0.11058939  0.09698554  0.00000000       0.003
   0.11093936  0.09637938  0.00000000       0.003
   0.11128933  0.09577322  0.00000000       0.003
   0.11163929  0.09516706  0.00000000       0.003
   0.11198926  0.09456090  0.00000000       0.003
   0.11233923  0.09395474  0.00000000       0.003
   0.11268919  0.09334859  0.00000000       0.003
   0.11303916  0.09274243  0.00000000       0.003
   0.11338912  0.09213627  0.00000000       0.003
   0.11373909  0.09153011  0.00000000       0.003
   0.11408906  0.09092395  0.00000000       0.003
   0.11443902  0.09031779  0.00000000       0.003
   0.11478899  0.08971163  0.00000000       0.003
   0.11513896  0.08910547  0.00000000       0.003
   0.11548892  0.08849931  0.00000000       0.003
   0.11583889  0.08789315  0.00000000       0.003
   0.11618886  0.08728699  0.00000000       0.003
   0.11653882  0.08668083  0.00000000       0.003
   0.11688879  0.08607467  0.00000000       0.003
   0.11723876  0.08546851  0.00000000       0.003
   0.11758872  0.08486235  0.00000000       0.003
   0.11793869  0.08425619  0.00000000       0.003
   0.11828866  0.08365003  0.00000000       0.003
   0.11863862  0.08304387  0.00000000       0.003
   0.11898859  0.08243771  0.00000000       0.003
   0.11933855  0.08183155  0.00000000       0.003
   0.11968852  0.08122539  0.00000000       0.003
   0.12003849  0.08061923  0.00000000       0.003
   0.12038845  0.08001307  0.00000000       0.003
   0.12073842  0.07940691  0.00000000       0.003
   0.12108839  0.07880075  0.00000000       0.003
   0.12143835  0.07819459  0.00000000       0.003
   0.12178832  0.07758843  0.00000000       0.003
   0.12213829  0.07698228  0.00000000       0.003
   0.12248825  0.07637612  0.00000000       0.003
   0.12283822  0.07576996  0.00000000       0.003
   0.12318819  0.07516380  0.00000000       0.003
   0.12353815  0.07455764  0.00000000       0.003
   0.12388812  0.07395148  0.00000000       0.003
   0.12423808  0.07334532  0.00000000       0.003
   0.12458805  0.07273916  0.00000000       0.003
   0.12493802  0.07213300  0.00000000       0.003
   0.12493802  0.07213300  0.00000000       0.003
   0.12388812  0.07152684  0.00000000       0.003
   0.12283822  0.07092068  0.00000000       0.003
   0.12178832  0.07031452  0.00000000       0.003
   0.12073842  0.06970836  0.00000000       0.003
   0.11968852  0.06910220  0.00000000       0.003
   0.11863862  0.06849604  0.00000000       0.003
   0.11758872  0.06788988  0.00000000       0.003
   0.11653882  0.06728372  0.00000000       0.003
   0.11548892  0.06667756  0.00000000       0.003
   0.11443902  0.06607140  0.00000000       0.003
   0.11338913  0.06546524  0.00000000       0.003
   0.11233923  0.06485908  0.00000000       0.003
   0.11128933  0.06425292  0.00000000       0.003
   0.11023943  0.06364676  0.00000000       0.003
   0.10918953  0.06304060  0.00000000       0.003
   0.10813963  0.06243444  0.00000000       0.003
   0.10708973  0.06182828  0.00000000       0.003
   0.10603983  0.06122212  0.00000000       0.003
   0.10498993  0.06061596  0.00000000       0.003
   0.10394003  0.06000981  0.00000000       0.003
   0.10289013  0.05940365  0.00000000       0.003
   0.10184023  0.05879749  0.00000000       0.003
   0.10079033  0.05819133  0.00000000       0.003
   0.09974043  0.05758517  0.00000000       0.003
   0.09869053  0.05697901  0.00000000       0.003
   0.09764064  0.05637285  0.00000000       0.003
   0.09659074  0.05576669  0.00000000       0.003
   0.09554084  0.05516053  0.00000000       0.003
   0.09449094  0.05455437  0.00000000       0.003
   0.09344104  0.05394821  0.00000000       0.003
   0.09239114  0.05334205  0.00000000       0.003
   0.09134124  0.05273589  0.00000000       0.003
   0.09029134  0.05212973  0.00000000       0.003
   0.08924144  0.05152357  0.00000000       0.003
   0.08819154  0.05091741  0.00000000       0.003
   0.08714164  0.05031125  0.00000000       0.003
   0.08609174  0.04970509  0.00000000       0.003
   0.08504184  0.04909893  0.00000000       0.003
   0.08399194  0.04849277  0.00000000       0.003
   0.08294205  0.04788661  0.00000000       0.003
   0.08189215  0.04728045  0.00000000       0.003
   0.08084225  0.04667429  0.00000000       0.003
   0.07979235  0.04606813  0.00000000       0.003
   0.07874245  0.04546197  0.00000000       0.003
   0.07769255  0.04485581  0.00000000       0.003
   0.07664265  0.04424965  0.00000000       0.003
   0.07559275  0.04364349  0.00000000       0.003
   0.07454285  0.04303733  0.00000000       0.003
   0.07349295  0.04243118  0.00000000       0.003
   0.07244305  0.04182502  0.00000000       0.003
   0.07139315  0.04121886  0.00000000       0.003
   0.07034325  0.04061270  0.00000000       0.003
   0.06929335  0.04000654  0.00000000       0.003
   0.06824345  0.03940038  0.00000000       0.003
   0.06719356  0.03879422  0.00000000       0.003
   0.06614366  0.03818806  0.00000000       0.003
   0.06509376  0.03758190  0.00000000       0.003
   0.06404386  0.03697574  0.00000000       0.003
   0.06299396  0.03636958  0.00000000       0.003
   0.06194406  0.03576342  0.00000000       0.003
   0.06089416  0.03515726  0.00000000       0.003
   0.05984426  0.03455110  0.00000000       0.003
   0.05879436  0.03394494  0.00000000       0.003
   0.05774446  0.03333878  0.00000000       0.003
   0.05669456  0.03273262  0.00000000       0.003
   0.05564466  0.03212646  0.00000000       0.003
   0.05459476  0.03152030  0.00000000       0.003
   0.05354486  0.03091414  0.00000000       0.003
   0.05249497  0.03030798  0.00000000       0.003
   0.05144507  0.02970182  0.00000000       0.003
   0.05039517  0.02909566  0.00000000       0.003
   0.04934527  0.02848950  0.00000000       0.003
   0.04829537  0.02788334  0.00000000       0.003
   0.04724547  0.02727718  0.00000000       0.003
   0.04619557  0.02667102  0.00000000       0.003
   0.04514567  0.02606486  0.00000000       0.003
   0.04409577  0.02545871  0.00000000       0.003
   0.04304587  0.02485255  0.00000000       0.003
   0.04199597  0.02424639  0.00000000       0.003
   0.04094607  0.02364023  0.00000000       0.003
   0.03989617  0.02303407  0.00000000       0.003
   0.03884627  0.02242791  0.00000000       0.003
   0.03779638  0.02182175  0.00000000       0.003
   0.03674648  0.02121559  0.00000000       0.003
   0.03569658  0.02060943  0.00000000       0.003
   0.03464668  0.02000327  0.00000000       0.003
   0.03359678  0.01939711  0.00000000       0.003
   0.03254688  0.01879095  0.00000000       0.003
   0.03149698  0.01818479  0.00000000       0.003
   0.03044708  0.01757863  0.00000000       0.003
   0.02939718  0.01697247  0.00000000       0.003
   0.02834728  0.01636631  0.00000000       0.003
   0.02729738  0.01576015  0.00000000       0.003
   0.02624748  0.01515399  0.00000000       0.003
   0.02519758  0.01454783  0.00000000       0.003
   0.02414768  0.01394167  0.00000000       0.003
   0.02309778  0.01333551  0.00000000       0.003
   0.02204789  0.01272935  0.00000000       0.003
   0.02099799  0.01212319  0.00000000       0.003
   0.01994809  0.01151703  0.00000000       0.003
   0.01889819  0.01091087  0.00000000       0.003
   0.01784829  0.01030471  0.00000000       0.003
   0.01679839  0.00969855  0.00000000       0.003
   0.01574849  0.00909239  0.00000000       0.003
   0.01469859  0.00848624  0.00000000       0.003
   0.01364869  0.00788008  0.00000000       0.003
   0.01259879  0.00727392  0.00000000       0.003
   0.01154889  0.00666776  0.00000000       0.003
   0.01049899  0.00606160  0.00000000       0.003
   0.00944909  0.00545544  0.00000000       0.003
   0.00839919  0.00484928  0.00000000       0.003
   0.00734930  0.00424312  0.00000000       0.003
   0.00629940  0.00363696  0.00000000       0.003
   0.00524950  0.00303080  0.00000000       0.003
   0.00419960  0.00242464  0.00000000       0.003
   0.00314970  0.00181848  0.00000000       0.003
   0.00209980  0.00121232  0.00000000       0.003
   0.00104990  0.00060616  0.00000000       0.003
   0.00000000  0.00000000  0.00000000       0.003

 k-points in reciprocal lattice and weights: HEX (hexagonal) G-M-K-G                 
   0.00000000  0.00000000  0.00000000       0.003
   0.00280112  0.00280112  0.00000000       0.003
   0.00560224  0.00560224  0.00000000       0.003
   0.00840336  0.00840336  0.00000000       0.003
   0.01120448  0.01120448  0.00000000       0.003
   0.01400560  0.01400560  0.00000000       0.003
   0.01680672  0.01680672  0.00000000       0.003
   0.01960784  0.01960784  0.00000000       0.003
   0.02240896  0.02240896  0.00000000       0.003
   0.02521008  0.02521008  0.00000000       0.003
   0.02801120  0.02801120  0.00000000       0.003
   0.03081232  0.03081232  0.00000000       0.003
   0.03361345  0.03361345  0.00000000       0.003
   0.03641457  0.03641457  0.00000000       0.003
   0.03921569  0.03921569  0.00000000       0.003
   0.04201681  0.04201681  0.00000000       0.003
   0.04481793  0.04481793  0.00000000       0.003
   0.04761905  0.04761905  0.00000000       0.003
   0.05042017  0.05042017  0.00000000       0.003
   0.05322129  0.05322129  0.00000000       0.003
   0.05602241  0.05602241  0.00000000       0.003
   0.05882353  0.05882353  0.00000000       0.003
   0.06162465  0.06162465  0.00000000       0.003
   0.06442577  0.06442577  0.00000000       0.003
   0.06722689  0.06722689  0.00000000       0.003
   0.07002801  0.07002801  0.00000000       0.003
   0.07282913  0.07282913  0.00000000       0.003
[...]
  0.000   0.000   0.000   0.000   0.000   0.000   0.000   0.000   0.000   0.000   0.000   0.000   0.000   0.000   0.000   0.000
  0.000   0.000   0.000   0.000   0.000   0.000   0.000   0.000   0.000   0.000   0.000   0.000   0.000   0.000   0.000   0.000
  0.000   0.000   0.000   0.000   0.000   0.000   0.000   0.000   0.000   0.000   0.000   0.000   0.000   0.000   0.000   0.000
  0.000   0.000   0.000   0.000   0.000   0.000   0.000   0.000   0.000   0.000   0.000   0.000   0.000   0.000   0.000   0.000
  0.000   0.000   0.000   0.000   0.000   0.000   0.000   0.000   0.000   0.000   0.000   0.000   0.000   0.000   0.000   0.000
  0.000   0.000   0.000   0.000   0.000   0.000   0.000   0.000   0.000   0.000   0.000   0.000   0.000   0.000   0.000   0.000
  0.000   0.000   0.000   0.000   0.000   0.000   0.000   0.000   0.000   0.000   0.000   0.000   0.000   0.000   0.000   0.000
 total augmentation occupancy for first ion, spin component:           2
  0.180   0.000   0.000   0.000   0.000   0.000   0.000   0.000   0.000   0.000   0.000   0.000   0.000   0.000   0.000   0.000
  0.000   0.180   0.000   0.000   0.000   0.000   0.000   0.000   0.000   0.000   0.000   0.000   0.000   0.000   0.000   0.000
  0.000   0.000   0.180   0.000   0.000   0.000   0.000   0.000   0.000   0.000   0.000   0.000   0.000   0.000   0.000   0.000
  0.000   0.000   0.000   0.180   0.000   0.000   0.000   0.000   0.000   0.000   0.000   0.000   0.000   0.000   0.000   0.000
  0.000   0.000   0.000   0.000   0.180   0.000   0.000   0.000   0.000   0.000   0.000   0.000   0.000   0.000   0.000   0.000
  0.000   0.000   0.000   0.000   0.000   0.000   0.000   0.000   0.000   0.000   0.000   0.000   0.000   0.000   0.000   0.000
  0.000   0.000   0.000   0.000   0.000   0.000   0.000   0.000   0.000   0.000   0.000   0.000   0.000   0.000   0.000   0.000
  0.000   0.000   0.000   0.000   0.000   0.000   0.000   0.000   0.000   0.000   0.000   0.000   0.000   0.000   0.000   0.000
  0.000   0.000   0.000   0.000   0.000   0.000   0.000   0.000   0.000   0.000   0.000   0.000   0.000   0.000   0.000   0.000
  0.000   0.000   0.000   0.000   0.000   0.000   0.000   0.000   0.000   0.000   0.000   0.000   0.000   0.000   0.000   0.000
  0.000   0.000   0.000   0.000   0.000   0.000   0.000   0.000   0.000   0.000   0.100   0.000   0.000   0.000   0.000   0.000
  0.000   0.000   0.000   0.000   0.000   0.000   0.000   0.000   0.000   0.000   0.000   0.000   0.000   0.000   0.000   0.000
  0.000   0.000   0.000   0.000   0.000   0.000   0.000   0.000   0.000   0.000   0.000   0.000   0.000   0.000   0.000   0.000
  0.000   0.000   0.000   0.000   0.000   0.000   0.000   0.000   0.000   0.000   0.000   0.000   0.000   0.000   0.000   0.000
  0.000   0.000   0.000   0.000   0.000   0.000   0.000   0.000   0.000   0.000   0.000   0.000   0.000   0.000   0.000   0.000
  0.000   0.000   0.000   0.000   0.000   0.000   0.000   0.000   0.000   0.000   0.000   0.000   0.000   0.000   0.000   0.000
  0.000   0.000   0.000   0.000   0.000   0.000   0.000   0.000   0.000   0.000   0.000   0.000   0.000   0.000   0.000   0.000
  0.000   0.000   0.000   0.000   0.000   0.000   0.000   0.000   0.000   0.000   0.000   0.000   0.000   0.000   0.000   0.000
 total augmentation occupancy for first ion, spin component:           3
  0.180   0.000   0.000   0.000   0.000   0.000   0.000   0.000   0.000   0.000   0.000   0.000   0.000   0.000   0.000   0.000
  0.000   0.180   0.000   0.000   0.000   0.000   0.000   0.000   0.000   0.000   0.000   0.000   0.000   0.000   0.000   0.000
  0.000   0.000   0.180   0.000   0.000   0.000   0.000   0.000   0.000   0.000   0.000   0.000   0.000   0.000   0.000   0.000
  0.000   0.000   0.000   0.180   0.000   0.000   0.000   0.000   0.000   0.000   0.000   0.000   0.000   0.000   0.000   0.000
  0.000   0.000   0.000   0.000   0.180   0.000   0.000   0.000   0.000   0.000   0.000   0.000   0.000   0.000   0.000   0.000
  0.000   0.000   0.000   0.000   0.000   0.000   0.000   0.000   0.000   0.000   0.000   0.000   0.000   0.000   0.000   0.000
  0.000   0.000   0.000   0.000   0.000   0.000   0.000   0.000   0.000   0.000   0.000   0.000   0.000   0.000   0.000   0.000
  0.000   0.000   0.000   0.000   0.000   0.000   0.000   0.000   0.000   0.000   0.000   0.000   0.000   0.000   0.000   0.000
  0.000   0.000   0.000   0.000   0.000   0.000   0.000   0.000   0.000   0.000   0.000   0.000   0.000   0.000   0.000   0.000
  0.000   0.000   0.000   0.000   0.000   0.000   0.000   0.000   0.000   0.000   0.000   0.000   0.000   0.000   0.000   0.000
  0.000   0.000   0.000   0.000   0.000   0.000   0.000   0.000   0.000   0.000   0.100   0.000   0.000   0.000   0.000   0.000
  0.000   0.000   0.000   0.000   0.000   0.000   0.000   0.000   0.000   0.000   0.000   0.000   0.000   0.000   0.000   0.000
  0.000   0.000   0.000   0.000   0.000   0.000   0.000   0.000   0.000   0.000   0.000   0.000   0.000   0.000   0.000   0.000
  0.000   0.000   0.000   0.000   0.000   0.000   0.000   0.000   0.000   0.000   0.000   0.000   0.000   0.000   0.000   0.000
  0.000   0.000   0.000   0.000   0.000   0.000   0.000   0.000   0.000   0.000   0.000   0.000   0.000   0.000   0.000   0.000
  0.000   0.000   0.000   0.000   0.000   0.000   0.000   0.000   0.000   0.000   0.000   0.000   0.000   0.000   0.000   0.000
  0.000   0.000   0.000   0.000   0.000   0.000   0.000   0.000   0.000   0.000   0.000   0.000   0.000   0.000   0.000   0.000
  0.000   0.000   0.000   0.000   0.000   0.000   0.000   0.000   0.000   0.000   0.000   0.000   0.000   0.000   0.000   0.000
 total augmentation occupancy for first ion, spin component:           4
  0.180   0.000   0.000   0.000   0.000   0.000   0.000   0.000   0.000   0.000   0.000   0.000   0.000   0.000   0.000   0.000
  0.000   0.180   0.000   0.000   0.000   0.000   0.000   0.000   0.000   0.000   0.000   0.000   0.000   0.000   0.000   0.000
  0.000   0.000   0.180   0.000   0.000   0.000   0.000   0.000   0.000   0.000   0.000   0.000   0.000   0.000   0.000   0.000
  0.000   0.000   0.000   0.180   0.000   0.000   0.000   0.000   0.000   0.000   0.000   0.000   0.000   0.000   0.000   0.000
  0.000   0.000   0.000   0.000   0.180   0.000   0.000   0.000   0.000   0.000   0.000   0.000   0.000   0.000   0.000   0.000
  0.000   0.000   0.000   0.000   0.000   0.000   0.000   0.000   0.000   0.000   0.000   0.000   0.000   0.000   0.000   0.000
  0.000   0.000   0.000   0.000   0.000   0.000   0.000   0.000   0.000   0.000   0.000   0.000   0.000   0.000   0.000   0.000
  0.000   0.000   0.000   0.000   0.000   0.000   0.000   0.000   0.000   0.000   0.000   0.000   0.000   0.000   0.000   0.000
  0.000   0.000   0.000   0.000   0.000   0.000   0.000   0.000   0.000   0.000   0.000   0.000   0.000   0.000   0.000   0.000
  0.000   0.000   0.000   0.000   0.000   0.000   0.000   0.000   0.000   0.000   0.000   0.000   0.000   0.000   0.000   0.000
  0.000   0.000   0.000   0.000   0.000   0.000   0.000   0.000   0.000   0.000   0.100   0.000   0.000   0.000   0.000   0.000
  0.000   0.000   0.000   0.000   0.000   0.000   0.000   0.000   0.000   0.000   0.000   0.000   0.000   0.000   0.000   0.000
  0.000   0.000   0.000   0.000   0.000   0.000   0.000   0.000   0.000   0.000   0.000   0.000   0.000   0.000   0.000   0.000
  0.000   0.000   0.000   0.000   0.000   0.000   0.000   0.000   0.000   0.000   0.000   0.000   0.000   0.000   0.000   0.000
  0.000   0.000   0.000   0.000   0.000   0.000   0.000   0.000   0.000   0.000   0.000   0.000   0.000   0.000   0.000   0.000
  0.000   0.000   0.000   0.000   0.000   0.000   0.000   0.000   0.000   0.000   0.000   0.000   0.000   0.000   0.000   0.000
  0.000   0.000   0.000   0.000   0.000   0.000   0.000   0.000   0.000   0.000   0.000   0.000   0.000   0.000   0.000   0.000
  0.000   0.000   0.000   0.000   0.000   0.000   0.000   0.000   0.000   0.000   0.000   0.000   0.000   0.000   0.000   0.000


------------------------ aborting loop because EDIFF is reached ----------------------------------------





 total charge

# of ion       s       p       d       tot
------------------------------------------
    1        0.646   0.633   8.239   9.518
    2        1.383   1.915   0.050   3.347
    3        1.383   1.915   0.050   3.347
--------------------------------------------------
tot          3.412   4.463   8.338  16.213



 magnetization (x)

# of ion       s       p       d       tot
------------------------------------------
    1       -0.000   0.000  -0.000  -0.000
    2        0.000  -0.000  -0.000   0.000
    3        0.000  -0.000  -0.000   0.000
--------------------------------------------------
tot         -0.000  -0.000  -0.000  -0.000



 magnetization (y)

# of ion       s       p       d       tot
------------------------------------------
    1        0.000   0.000  -0.000   0.000
    2        0.000  -0.000  -0.000   0.000
    3        0.000  -0.000  -0.000   0.000
--------------------------------------------------
tot          0.000   0.000  -0.000   0.000



 magnetization (z)

# of ion       s       p       d       tot
------------------------------------------
    1       -0.000   0.000  -0.000  -0.000
    2        0.000  -0.000   0.000  -0.000
    3        0.000  -0.000   0.000  -0.000
--------------------------------------------------
tot         -0.000  -0.000  -0.000  -0.000

    CHARGE:  cpu time      2.8179: real time      2.8392
    FORLOC:  cpu time      0.0046: real time      0.0046
    FORNL :  cpu time      4.7431: real time      4.7660
    STRESS:  cpu time      7.3435: real time      7.3791
    FORCOR:  cpu time      0.1840: real time      0.1853
    FORHAR:  cpu time      0.0199: real time      0.0200
    OFIELD:  cpu time      0.0022: real time      0.0022

  FORCE on cell =-STRESS in cart. coord.  units (eV):
  Direction    XX          YY          ZZ          XY          YZ          ZX
  --------------------------------------------------------------------------------------
  Alpha Z     7.86629     7.86629     7.86629
  Ewald    3331.11632  3331.11632 -4138.15647    -0.00000    -0.00000     0.00000
  Hartree  3528.76055  3527.37882 -3423.07362     2.10906    -0.18823    -0.76663
  E(xc)     -92.25320   -92.09977   -92.67376    -0.29316    -0.08627    -0.27714
  Local   -7252.68821 -7247.02502  7162.28250    -9.69042    -1.15639    -3.27575
  n-local   228.11351   226.24609   227.88041     3.79131     1.18298     3.84516
  augment    -0.19079    -0.74806    -0.41066     0.54085    -0.19742    -0.67297
  Kinetic   248.74655   247.94259   255.45805     2.40104     0.99137     3.15988
  Fock        0.00000     0.00000     0.00000     0.00000     0.00000     0.00000
  -------------------------------------------------------------------------------------
  Total      -0.52897     0.67726    -0.82725    -1.14132     0.54603     2.01256
  in kB      -2.92176     3.74081    -4.56933    -6.30406     3.01601    11.11631
  external pressure =       -1.25 kB  Pullay stress =        0.00 kB


 VOLUME and BASIS-vectors are now :
 -----------------------------------------------------------------------------
  energy-cutoff  :      600.00
  volume of cell :      290.07
      direct lattice vectors                 reciprocal lattice vectors
     4.001984425  0.000000000  0.000000000     0.249876035  0.144265996 -0.000000000
    -2.000992213  3.465820178  0.000000000     0.000000000  0.288531992  0.000000000
     0.000000000  0.000000000 20.912997121     0.000000000 -0.000000000  0.047817154

  length of vectors
     4.001984425  4.001984425 20.912997121     0.288531992  0.288531992  0.047817154


 FORCES acting on ions
    electron-ion (+dipol)            ewald-force                    non-local-force                 convergence-correction
 -----------------------------------------------------------------------------------------------
   -.379E-14 -.485E-14 0.120E-11   0.145E-14 0.108E-13 -.568E-13   0.000E+00 0.000E+00 0.000E+00   0.152E-12 -.318E-13 -.144E-11
   0.117E+01 0.569E+00 -.427E+03   0.163E-11 -.103E-11 0.433E+03   0.345E-01 -.184E+00 -.617E+01   -.506E+00 -.178E+00 -.466E+00
   -.117E+01 -.569E+00 0.427E+03   -.164E-11 0.103E-11 -.433E+03   -.345E-01 0.184E+00 0.617E+01   0.506E+00 0.178E+00 0.466E+00
 -----------------------------------------------------------------------------------------------
   0.172E-12 -.714E-13 0.136E-11   -.210E-14 0.157E-13 -.568E-13   0.000E+00 0.000E+00 0.000E+00   0.108E-12 0.866E-14 -.248E-11


 POSITION                                       TOTAL-FORCE (eV/Angst)
 -----------------------------------------------------------------------------------
      0.00000      0.00000     10.45650        -0.000000      0.000000      0.000000
     -0.00000      2.31055     11.84637         0.699411      0.207337      0.063602
      2.00099      1.15527      9.06663        -0.699411     -0.207337     -0.063602
 -----------------------------------------------------------------------------------
    total drift:                                0.000000     -0.000000     -0.000000


--------------------------------------------------------------------------------------------------------



  FREE ENERGIE OF THE ION-ELECTRON SYSTEM (eV)
  ---------------------------------------------------
  free  energy   TOTEN  =       -11.62634410 eV

  energy  without entropy=      -11.62634084  energy(sigma->0) =      -11.62634247



--------------------------------------------------------------------------------------------------------


    POTLOK:  cpu time      0.8495: real time      0.8531


--------------------------------------------------------------------------------------------------------


     LOOP+:  cpu time    455.3284: real time    459.1877
    4ORBIT:  cpu time      0.0000: real time      0.0000

 Spin-Orbit-Coupling matrix elements

 Ion:    1  E_soc:     -0.6496425
 l=   1
     0.0000000    -0.0301806    -0.0313380
    -0.0301806     0.0000000    -0.0307062
    -0.0313380    -0.0307062     0.0000000
 l=   2
     0.0000000    -0.0172243     0.0000000    -0.0168868    -0.0582021
    -0.0172243     0.0000000    -0.0449962    -0.0202911    -0.0167997
     0.0000000    -0.0449962     0.0000000    -0.0431043     0.0000000
    -0.0168868    -0.0202911    -0.0431043     0.0000000    -0.0150920
    -0.0582021    -0.0167997     0.0000000    -0.0150920     0.0000000
 l=   3
     0.0000000     0.0000000     0.0000000     0.0000000     0.0000000     0.0000000     0.0000000
     0.0000000     0.0000000     0.0000000     0.0000000     0.0000000     0.0000000     0.0000000
     0.0000000     0.0000000     0.0000000     0.0000000     0.0000000     0.0000000     0.0000000
     0.0000000     0.0000000     0.0000000     0.0000000     0.0000000     0.0000000     0.0000000
     0.0000000     0.0000000     0.0000000     0.0000000     0.0000000     0.0000000     0.0000000
     0.0000000     0.0000000     0.0000000     0.0000000     0.0000000     0.0000000     0.0000000
     0.0000000     0.0000000     0.0000000     0.0000000     0.0000000     0.0000000     0.0000000

 Ion:    2  E_soc:     -0.1869836
 l=   1
     0.0000000    -0.0311204    -0.0291064
    -0.0311204     0.0000000    -0.0326819
    -0.0291064    -0.0326819     0.0000000
 l=   2
     0.0000000    -0.0000339     0.0000000    -0.0000370    -0.0002043
    -0.0000339     0.0000000    -0.0000996    -0.0000217    -0.0000416
     0.0000000    -0.0000996     0.0000000    -0.0001123     0.0000000
    -0.0000370    -0.0000217    -0.0001123     0.0000000    -0.0000327
    -0.0002043    -0.0000416     0.0000000    -0.0000327     0.0000000
 l=   3
     0.0000000     0.0000000     0.0000000     0.0000000     0.0000000     0.0000000     0.0000000
     0.0000000     0.0000000     0.0000000     0.0000000     0.0000000     0.0000000     0.0000000
     0.0000000     0.0000000     0.0000000     0.0000000     0.0000000     0.0000000     0.0000000
     0.0000000     0.0000000     0.0000000     0.0000000     0.0000000     0.0000000     0.0000000
     0.0000000     0.0000000     0.0000000     0.0000000     0.0000000     0.0000000     0.0000000
     0.0000000     0.0000000     0.0000000     0.0000000     0.0000000     0.0000000     0.0000000
     0.0000000     0.0000000     0.0000000     0.0000000     0.0000000     0.0000000     0.0000000

 Ion:    3  E_soc:     -0.1869836
 l=   1
     0.0000000    -0.0311204    -0.0291064
    -0.0311204     0.0000000    -0.0326819
    -0.0291064    -0.0326819     0.0000000
 l=   2
     0.0000000    -0.0000339     0.0000000    -0.0000370    -0.0002043
    -0.0000339     0.0000000    -0.0000996    -0.0000217    -0.0000416
     0.0000000    -0.0000996     0.0000000    -0.0001123     0.0000000
    -0.0000370    -0.0000217    -0.0001123     0.0000000    -0.0000327
    -0.0002043    -0.0000416     0.0000000    -0.0000327     0.0000000
 l=   3
     0.0000000     0.0000000     0.0000000     0.0000000     0.0000000     0.0000000     0.0000000
     0.0000000     0.0000000     0.0000000     0.0000000     0.0000000     0.0000000     0.0000000
     0.0000000     0.0000000     0.0000000     0.0000000     0.0000000     0.0000000     0.0000000
     0.0000000     0.0000000     0.0000000     0.0000000     0.0000000     0.0000000     0.0000000
     0.0000000     0.0000000     0.0000000     0.0000000     0.0000000     0.0000000     0.0000000
     0.0000000     0.0000000     0.0000000     0.0000000     0.0000000     0.0000000     0.0000000
     0.0000000     0.0000000     0.0000000     0.0000000     0.0000000     0.0000000     0.0000000



 total charge

# of ion       s       p       d       tot
------------------------------------------
    1        0.646   0.633   8.239   9.518
    2        1.383   1.915   0.050   3.347
    3        1.383   1.915   0.050   3.347
--------------------------------------------------
tot          3.412   4.463   8.338  16.213



 magnetization (x)

# of ion       s       p       d       tot
------------------------------------------
    1       -0.000   0.000  -0.000  -0.000
    2        0.000  -0.000  -0.000   0.000
    3        0.000  -0.000  -0.000   0.000
--------------------------------------------------
tot         -0.000  -0.000  -0.000  -0.000



 magnetization (y)

# of ion       s       p       d       tot
------------------------------------------
    1        0.000   0.000  -0.000   0.000
    2        0.000  -0.000  -0.000   0.000
    3        0.000  -0.000  -0.000   0.000
--------------------------------------------------
tot          0.000   0.000  -0.000   0.000



 magnetization (z)

# of ion       s       p       d       tot
------------------------------------------
    1       -0.000   0.000  -0.000  -0.000
    2        0.000  -0.000   0.000  -0.000
    3        0.000  -0.000   0.000  -0.000
--------------------------------------------------
tot         -0.000  -0.000  -0.000  -0.000


 total amount of memory used by VASP MPI-rank0   342283. kBytes
=======================================================================

   base      :      30000. kBytes
   nonl-proj :     143144. kBytes
   fftplans  :       5002. kBytes
   grid      :      18923. kBytes
   one-center:         62. kBytes
   wavefun   :     145152. kBytes

  
  
 General timing and accounting informations for this job:
 ========================================================
  
                  Total CPU time used (sec):      493.303
                            User time (sec):      490.174
                          System time (sec):        3.129
                         Elapsed time (sec):      498.535
  
                   Maximum memory used (kb):      586684.
                   Average memory used (kb):          N/A
  
                          Minor page faults:        89019
                          Major page faults:            5
                 Voluntary context switches:        10490
