 vasp.6.4.2 20Jul23 (build Jun 20 2024 14:04:24) complex                         
 executed on             LinuxGNU date 2026.03.10  01:58:35
 running   28 mpi-ranks, with    1 threads/rank, on    1 nodes
 distrk:  each k-point on   28 cores,    1 groups
 distr:  one band on NCORE=   7 cores,    4 groups


--------------------------------------------------------------------------------------------------------


 INCAR:
   SYSTEM = PtS2
   ALGO = Normal
   LREAL = False
   PREC = Accurate
   ICHARG = 11
   ISYM = 2
   LASPH = True
   IBRION = -1
   ISIF = 2
   NSW = 0
   NELM = 100
   NELMIN = 5
   ISMEAR = 0
   SIGMA = 0.05
   ENCUT = 600
   EDIFF = 1E-8
   LCHARG = True
   LWAVE = False
   LORBIT = 11
   NPAR = 4
   LDAU = True
   LDAUTYPE = 2
   LDAUL = 2 -1
   LDAUU = 3.00 0.00
   LDAUJ = 0.00 0.00
   LMAXMIX = 4
   LDAUPRINT = 1

 POTCAR:    PAW_PBE Pt 04Feb2005                  
 POTCAR:    PAW_PBE Te 08Apr2002                  
 POTCAR:    PAW_PBE Pt 04Feb2005                  
   SHA256 =  3ed90460adef76debcff1cfb73ee1349b515b1a3db03439735b44de3a8db7dc8 Pt/POTCAR             
   COPYR  = (c) Copyright 04Feb2005 Georg Kresse                                                    
   COPYR  = This file is part of the software VASP. Any use, copying, and all other rights are regul
   COPYR  = If you do not have a valid VASP license, you may not use, copy or distribute this file. 
   VRHFIN =Pt: s1d9                                                                                 
   LEXCH  = PE                                                                                      
   EATOM  =   729.1176 eV,   53.5886 Ry                                                             
                                                                                                    
   TITEL  = PAW_PBE Pt 04Feb2005                                                                    
   LULTRA =        F    use ultrasoft PP ?                                                          
   IUNSCR =        1    unscreen: 0-lin 1-nonlin 2-no                                               
   RPACOR =    2.330    partial core radius                                                         
   POMASS =  195.080; ZVAL   =   10.000    mass and valenz                                          
   RCORE  =    2.600    outmost cutoff radius                                                       
   RWIGS  =    2.750; RWIGS  =    1.455    wigner-seitz radius (au A)                               
   ENMAX  =  230.283; ENMIN  =  172.712 eV                                                          
   ICORE  =        3    local potential                                                             
   LCOR   =        T    correct aug charges                                                         
   LPAW   =        T    paw PP                                                                      
   EAUG   =  358.966                                                                                
   DEXC   =    0.000                                                                                
   RMAX   =    2.658    core radius for proj-oper                                                   
   RAUG   =    1.300    factor for augmentation sphere                                              
   RDEP   =    2.761    radius for radial grids                                                     
   RDEPT  =    2.203    core radius for aug-charge                                                  
                                                                                                    
   Atomic configuration                                                                             
   16 entries                                                                                       
     n  l   j            E        occ.                                                              
     1  0  0.50    -78401.1885   2.0000                                                             
     2  0  0.50    -13770.7750   2.0000                                                             
     2  1  1.50    -11931.0468   6.0000                                                             
     3  0  0.50     -3234.7234   2.0000                                                             
     3  1  1.50     -2699.2216   6.0000                                                             
     3  2  2.50     -2119.5714  10.0000                                                             
     4  0  0.50      -695.1528   2.0000                                                             
     4  1  1.50      -519.6034   6.0000                                                             
     4  2  2.50      -306.6786  10.0000                                                             
     4  3  3.50       -70.1041  14.0000                                                             
     5  0  0.50      -101.7747   2.0000                                                             
     5  1  1.50       -55.9873   6.0000                                                             
     5  2  2.50        -6.1423   9.0000                                                             
     6  0  0.50        -5.6573   1.0000                                                             
     6  1  1.50        -6.8029   0.0000                                                             
     5  3  2.50        -1.3606   0.0000                                                             
   Description                                                                                      
     l       E           TYP  RCUT    TYP  RCUT                                                     
     2     -6.1423404     23  2.500                                                                 
     2     -7.5029230     23  2.500                                                                 
     0     -5.6573207     23  2.500                                                                 
     0      0.7416693     23  2.500                                                                 
     1     -2.7211652     23  2.600                                                                 
     1     20.4087390     23  2.600                                                                 
     3     -1.3605826     23  2.500                                                                 
  local pseudopotential read in
  partial core-charges read in
  partial kinetic energy density read in
  atomic valenz-charges read in
  non local Contribution for L=           2  read in
    real space projection operators read in
  non local Contribution for L=           2  read in
    real space projection operators read in
  non local Contribution for L=           0  read in
    real space projection operators read in
  non local Contribution for L=           0  read in
    real space projection operators read in
  non local Contribution for L=           1  read in
    real space projection operators read in
  non local Contribution for L=           1  read in
    real space projection operators read in
    PAW grid and wavefunctions read in

   number of l-projection  operators is LMAX  =           6
   number of lm-projection operators is LMMAX =          18

 POTCAR:    PAW_PBE Te 08Apr2002                  
   SHA256 =  e13b0861f25acb1fe6cdc17458a3647985498b67a429eb77ddc1eac05a1775b1 Te/POTCAR             
   COPYR  = (c) Copyright 08Apr2002 Georg Kresse                                                    
   COPYR  = This file is part of the software VASP. Any use, copying, and all other rights are regul
   COPYR  = If you do not have a valid VASP license, you may not use, copy or distribute this file. 
   VRHFIN =Te: s2p4                                                                                 
   LEXCH  = PE                                                                                      
   EATOM  =   223.2721 eV,   16.4100 Ry                                                             
                                                                                                    
   TITEL  = PAW_PBE Te 08Apr2002                                                                    
   LULTRA =        F    use ultrasoft PP ?                                                          
   IUNSCR =        1    unscreen: 0-lin 1-nonlin 2-no                                               
   RPACOR =    2.200    partial core radius                                                         
   POMASS =  127.600; ZVAL   =    6.000    mass and valenz                                          
   RCORE  =    2.300    outmost cutoff radius                                                       
   RWIGS  =    2.900; RWIGS  =    1.535    wigner-seitz radius (au A)                               
   ENMAX  =  174.982; ENMIN  =  131.236 eV                                                          
   ICORE  =        3    local potential                                                             
   LCOR   =        T    correct aug charges                                                         
   LPAW   =        T    paw PP                                                                      
   EAUG   =  368.792                                                                                
   DEXC   =    0.000                                                                                
   RMAX   =    2.345    core radius for proj-oper                                                   
   RAUG   =    1.300    factor for augmentation sphere                                              
   RDEP   =    2.397    radius for radial grids                                                     
   RDEPT  =    2.174    core radius for aug-charge                                                  
                                                                                                    
   Atomic configuration                                                                             
   13 entries                                                                                       
     n  l   j            E        occ.                                                              
     1  0  0.50    -31621.2075   2.0000                                                             
     2  0  0.50     -4848.7941   2.0000                                                             
     2  1  1.50     -4352.1960   6.0000                                                             
     3  0  0.50      -964.9612   2.0000                                                             
     3  1  1.50      -803.6179   6.0000                                                             
     3  2  2.50      -559.8710  10.0000                                                             
     4  0  0.50      -164.3522   2.0000                                                             
     4  1  1.50      -114.3756   6.0000                                                             
     4  2  2.50       -41.6483  10.0000                                                             
     5  0  0.50       -15.1072   2.0000                                                             
     5  1  0.50        -5.9526   4.0000                                                             
     5  2  1.50        -5.4423   0.0000                                                             
     4  3  2.50        -5.4423   0.0000                                                             
   Description                                                                                      
     l       E           TYP  RCUT    TYP  RCUT                                                     
     0    -15.1072389     23  2.300                                                                 
     0    -16.4678215     23  2.300                                                                 
     1     -5.9526306     23  2.300                                                                 
     1     -2.4873968     23  2.300                                                                 
     2     -5.4423304     23  2.300                                                                 
     3     -1.3605826     23  2.300                                                                 
  local pseudopotential read in
  partial core-charges read in
  partial kinetic energy density read in
  atomic valenz-charges read in
  non local Contribution for L=           0  read in
    real space projection operators read in
  non local Contribution for L=           0  read in
    real space projection operators read in
  non local Contribution for L=           1  read in
    real space projection operators read in
  non local Contribution for L=           1  read in
    real space projection operators read in
  non local Contribution for L=           2  read in
    real space projection operators read in
    PAW grid and wavefunctions read in

   number of l-projection  operators is LMAX  =           5
   number of lm-projection operators is LMMAX =          13

  PAW_PBE Pt 04Feb2005                  :
 energy of atom  1       EATOM= -729.1176
 kinetic energy error for atom=    0.0012 (will be added to EATOM!!)
  PAW_PBE Te 08Apr2002                  :
 energy of atom  2       EATOM= -223.2721
 kinetic energy error for atom=    0.0004 (will be added to EATOM!!)


 POSCAR: PtTe
  positions in direct lattice
  No initial velocities read in
 exchange correlation table for  LEXCH =        8
   RHO(1)=    0.500       N(1)  =     2000
   RHO(2)=  100.500       N(2)  =     4000



--------------------------------------------------------------------------------------------------------


 ion  position               nearest neighbor table
   1  0.000  0.000  0.500-   2 2.69   3 2.69   3 2.69   2 2.69   3 2.69   2 2.69
   2  0.333  0.667  0.566-   1 2.69   1 2.69   1 2.69   3 3.61   3 3.61   3 3.61
   3  0.667  0.333  0.434-   1 2.69   1 2.69   1 2.69   2 3.61   2 3.61   2 3.61

  LATTYP: Found a hexagonal cell.
 ALAT       =     3.9968765849
 C/A-ratio  =     5.2457169227
  
  Lattice vectors:
  
 A1 = (   3.9968765849,   0.0000000000,   0.0000000000)
 A2 = (  -1.9984382925,   3.4613966583,   0.0000000000)
 A3 = (   0.0000000000,   0.0000000000,  20.9664831396)


Analysis of symmetry for initial positions (statically):
=====================================================================
 Subroutine PRICEL returns:
 Original cell was already a primitive cell.
 

 Routine SETGRP: Setting up the symmetry group for a 
 hexagonal supercell.


 Subroutine GETGRP returns: Found 12 space group operations
 (whereof 12 operations were pure point group operations)
 out of a pool of 24 trial point group operations.


The static configuration has the point symmetry D_3d.


Analysis of symmetry for dynamics (positions and initial velocities):
=====================================================================
 Subroutine PRICEL returns:
 Original cell was already a primitive cell.
 

 Routine SETGRP: Setting up the symmetry group for a 
 hexagonal supercell.


 Subroutine GETGRP returns: Found 12 space group operations
 (whereof 12 operations were pure point group operations)
 out of a pool of 24 trial point group operations.


The dynamic configuration has the point symmetry D_3d.


 Subroutine INISYM returns: Found 12 space group operations
 (whereof 12 operations are pure point group operations),
 and found     1 'primitive' translations


----------------------------------------------------------------------------------------

                                     Primitive cell                                     

  volume of cell :     290.0666

  direct lattice vectors                    reciprocal lattice vectors
     3.996876585  0.000000000  0.000000000     0.250195366  0.144450362 -0.000000000
    -1.998438292  3.461396658  0.000000000     0.000000000  0.288900724  0.000000000
     0.000000000  0.000000000 20.966483140     0.000000000 -0.000000000  0.047695171

  length of vectors
     3.996876585  3.996876585 20.966483140     0.288900724  0.288900724  0.047695171

  position of ions in fractional coordinates (direct lattice)
     0.000000000  0.000000000  0.500000000
     0.333333333  0.666666667  0.566301013
     0.666666667  0.333333333  0.433698987

  ion indices of the primitive-cell ions
   primitive index   ion index
                 1           1
                 2           2
                 3           3

----------------------------------------------------------------------------------------



 KPOINTS: HEX (hexagonal) G-M-K-G                 

Interpolating k-points between supplied coordinates.

 Line segments in fractional coordinates (reciprocal lattice):
    0.000000  0.000000  0.000000  ...  0.333333  0.333333  0.000000
    0.333333  0.333333  0.000000  ...  0.500000  0.000000  0.000000
    0.500000  0.000000  0.000000  ...  0.000000  0.000000  0.000000

 Generated   120 points on each line segment, for a total of    360 k-points:

 Following reciprocal coordinates:
            Coordinates               Weight
  0.000000  0.000000  0.000000      0.002778
  0.002801  0.002801  0.000000      0.002778
  0.005602  0.005602  0.000000      0.002778
  0.008403  0.008403  0.000000      0.002778
  0.011204  0.011204  0.000000      0.002778
  0.014006  0.014006  0.000000      0.002778
  0.016807  0.016807  0.000000      0.002778
  0.019608  0.019608  0.000000      0.002778
  0.022409  0.022409  0.000000      0.002778
  0.025210  0.025210  0.000000      0.002778
  0.028011  0.028011  0.000000      0.002778
  0.030812  0.030812  0.000000      0.002778
  0.033613  0.033613  0.000000      0.002778
  0.036415  0.036415  0.000000      0.002778
  0.039216  0.039216  0.000000      0.002778
  0.042017  0.042017  0.000000      0.002778
  0.044818  0.044818  0.000000      0.002778
  0.047619  0.047619  0.000000      0.002778
  0.050420  0.050420  0.000000      0.002778
  0.053221  0.053221  0.000000      0.002778
  0.056022  0.056022  0.000000      0.002778
  0.058824  0.058824  0.000000      0.002778
  0.061625  0.061625  0.000000      0.002778
  0.064426  0.064426  0.000000      0.002778
  0.067227  0.067227  0.000000      0.002778
  0.070028  0.070028  0.000000      0.002778
  0.072829  0.072829  0.000000      0.002778
  0.075630  0.075630  0.000000      0.002778
  0.078431  0.078431  0.000000      0.002778
  0.081232  0.081232  0.000000      0.002778
  0.084034  0.084034  0.000000      0.002778
  0.086835  0.086835  0.000000      0.002778
  0.089636  0.089636  0.000000      0.002778
  0.092437  0.092437  0.000000      0.002778
  0.095238  0.095238  0.000000      0.002778
  0.098039  0.098039  0.000000      0.002778
  0.100840  0.100840  0.000000      0.002778
  0.103641  0.103641  0.000000      0.002778
  0.106443  0.106443  0.000000      0.002778
  0.109244  0.109244  0.000000      0.002778
  0.112045  0.112045  0.000000      0.002778
  0.114846  0.114846  0.000000      0.002778
  0.117647  0.117647  0.000000      0.002778
  0.120448  0.120448  0.000000      0.002778
  0.123249  0.123249  0.000000      0.002778
  0.126050  0.126050  0.000000      0.002778
  0.128852  0.128852  0.000000      0.002778
  0.131653  0.131653  0.000000      0.002778
  0.134454  0.134454  0.000000      0.002778
  0.137255  0.137255  0.000000      0.002778
  0.140056  0.140056  0.000000      0.002778
  0.142857  0.142857  0.000000      0.002778
  0.145658  0.145658  0.000000      0.002778
  0.148459  0.148459  0.000000      0.002778
  0.151261  0.151261  0.000000      0.002778
  0.154062  0.154062  0.000000      0.002778
  0.156863  0.156863  0.000000      0.002778
  0.159664  0.159664  0.000000      0.002778
  0.162465  0.162465  0.000000      0.002778
  0.165266  0.165266  0.000000      0.002778
  0.168067  0.168067  0.000000      0.002778
  0.170868  0.170868  0.000000      0.002778
  0.173669  0.173669  0.000000      0.002778
  0.176471  0.176471  0.000000      0.002778
  0.179272  0.179272  0.000000      0.002778
  0.182073  0.182073  0.000000      0.002778
  0.184874  0.184874  0.000000      0.002778
  0.187675  0.187675  0.000000      0.002778
  0.190476  0.190476  0.000000      0.002778
  0.193277  0.193277  0.000000      0.002778
  0.196078  0.196078  0.000000      0.002778
  0.198880  0.198880  0.000000      0.002778
  0.201681  0.201681  0.000000      0.002778
  0.204482  0.204482  0.000000      0.002778
  0.207283  0.207283  0.000000      0.002778
  0.210084  0.210084  0.000000      0.002778
  0.212885  0.212885  0.000000      0.002778
  0.215686  0.215686  0.000000      0.002778
  0.218487  0.218487  0.000000      0.002778
  0.221289  0.221289  0.000000      0.002778
  0.224090  0.224090  0.000000      0.002778
  0.226891  0.226891  0.000000      0.002778
  0.229692  0.229692  0.000000      0.002778
  0.232493  0.232493  0.000000      0.002778
  0.235294  0.235294  0.000000      0.002778
  0.238095  0.238095  0.000000      0.002778
  0.240896  0.240896  0.000000      0.002778
  0.243697  0.243697  0.000000      0.002778
  0.246499  0.246499  0.000000      0.002778
  0.249300  0.249300  0.000000      0.002778
  0.252101  0.252101  0.000000      0.002778
  0.254902  0.254902  0.000000      0.002778
  0.257703  0.257703  0.000000      0.002778
  0.260504  0.260504  0.000000      0.002778
  0.263305  0.263305  0.000000      0.002778
  0.266106  0.266106  0.000000      0.002778
  0.268908  0.268908  0.000000      0.002778
  0.271709  0.271709  0.000000      0.002778
  0.274510  0.274510  0.000000      0.002778
  0.277311  0.277311  0.000000      0.002778
  0.280112  0.280112  0.000000      0.002778
  0.282913  0.282913  0.000000      0.002778
  0.285714  0.285714  0.000000      0.002778
  0.288515  0.288515  0.000000      0.002778
  0.291317  0.291317  0.000000      0.002778
  0.294118  0.294118  0.000000      0.002778
  0.296919  0.296919  0.000000      0.002778
  0.299720  0.299720  0.000000      0.002778
  0.302521  0.302521  0.000000      0.002778
  0.305322  0.305322  0.000000      0.002778
  0.308123  0.308123  0.000000      0.002778
  0.310924  0.310924  0.000000      0.002778
  0.313725  0.313725  0.000000      0.002778
  0.316527  0.316527  0.000000      0.002778
  0.319328  0.319328  0.000000      0.002778
  0.322129  0.322129  0.000000      0.002778
  0.324930  0.324930  0.000000      0.002778
  0.327731  0.327731  0.000000      0.002778
  0.330532  0.330532  0.000000      0.002778
  0.333333  0.333333  0.000000      0.002778
  0.333333  0.333333  0.000000      0.002778
  0.334734  0.330532  0.000000      0.002778
  0.336134  0.327731  0.000000      0.002778
  0.337535  0.324930  0.000000      0.002778
  0.338936  0.322129  0.000000      0.002778
  0.340336  0.319328  0.000000      0.002778
  0.341737  0.316527  0.000000      0.002778
  0.343137  0.313725  0.000000      0.002778
  0.344538  0.310924  0.000000      0.002778
  0.345938  0.308123  0.000000      0.002778
  0.347339  0.305322  0.000000      0.002778
  0.348739  0.302521  0.000000      0.002778
  0.350140  0.299720  0.000000      0.002778
  0.351541  0.296919  0.000000      0.002778
  0.352941  0.294118  0.000000      0.002778
  0.354342  0.291317  0.000000      0.002778
  0.355742  0.288515  0.000000      0.002778
  0.357143  0.285714  0.000000      0.002778
  0.358543  0.282913  0.000000      0.002778
  0.359944  0.280112  0.000000      0.002778
  0.361345  0.277311  0.000000      0.002778
  0.362745  0.274510  0.000000      0.002778
  0.364146  0.271709  0.000000      0.002778
  0.365546  0.268908  0.000000      0.002778
  0.366947  0.266106  0.000000      0.002778
  0.368347  0.263305  0.000000      0.002778
  0.369748  0.260504  0.000000      0.002778
  0.371148  0.257703  0.000000      0.002778
  0.372549  0.254902  0.000000      0.002778
  0.373950  0.252101  0.000000      0.002778
  0.375350  0.249300  0.000000      0.002778
  0.376751  0.246499  0.000000      0.002778
  0.378151  0.243697  0.000000      0.002778
  0.379552  0.240896  0.000000      0.002778
  0.380952  0.238095  0.000000      0.002778
  0.382353  0.235294  0.000000      0.002778
  0.383753  0.232493  0.000000      0.002778
  0.385154  0.229692  0.000000      0.002778
  0.386555  0.226891  0.000000      0.002778
  0.387955  0.224090  0.000000      0.002778
  0.389356  0.221289  0.000000      0.002778
  0.390756  0.218487  0.000000      0.002778
  0.392157  0.215686  0.000000      0.002778
  0.393557  0.212885  0.000000      0.002778
  0.394958  0.210084  0.000000      0.002778
  0.396359  0.207283  0.000000      0.002778
  0.397759  0.204482  0.000000      0.002778
  0.399160  0.201681  0.000000      0.002778
  0.400560  0.198880  0.000000      0.002778
  0.401961  0.196078  0.000000      0.002778
  0.403361  0.193277  0.000000      0.002778
  0.404762  0.190476  0.000000      0.002778
  0.406162  0.187675  0.000000      0.002778
  0.407563  0.184874  0.000000      0.002778
  0.408964  0.182073  0.000000      0.002778
  0.410364  0.179272  0.000000      0.002778
  0.411765  0.176471  0.000000      0.002778
  0.413165  0.173669  0.000000      0.002778
  0.414566  0.170868  0.000000      0.002778
  0.415966  0.168067  0.000000      0.002778
  0.417367  0.165266  0.000000      0.002778
  0.418768  0.162465  0.000000      0.002778
  0.420168  0.159664  0.000000      0.002778
  0.421569  0.156863  0.000000      0.002778
  0.422969  0.154062  0.000000      0.002778
  0.424370  0.151261  0.000000      0.002778
  0.425770  0.148459  0.000000      0.002778
  0.427171  0.145658  0.000000      0.002778
  0.428571  0.142857  0.000000      0.002778
  0.429972  0.140056  0.000000      0.002778
  0.431373  0.137255  0.000000      0.002778
  0.432773  0.134454  0.000000      0.002778
  0.434174  0.131653  0.000000      0.002778
  0.435574  0.128852  0.000000      0.002778
  0.436975  0.126050  0.000000      0.002778
  0.438375  0.123249  0.000000      0.002778
  0.439776  0.120448  0.000000      0.002778
  0.441176  0.117647  0.000000      0.002778
  0.442577  0.114846  0.000000      0.002778
  0.443978  0.112045  0.000000      0.002778
  0.445378  0.109244  0.000000      0.002778
  0.446779  0.106443  0.000000      0.002778
  0.448179  0.103641  0.000000      0.002778
  0.449580  0.100840  0.000000      0.002778
  0.450980  0.098039  0.000000      0.002778
  0.452381  0.095238  0.000000      0.002778
  0.453782  0.092437  0.000000      0.002778
  0.455182  0.089636  0.000000      0.002778
  0.456583  0.086835  0.000000      0.002778
  0.457983  0.084034  0.000000      0.002778
  0.459384  0.081232  0.000000      0.002778
  0.460784  0.078431  0.000000      0.002778
  0.462185  0.075630  0.000000      0.002778
  0.463585  0.072829  0.000000      0.002778
  0.464986  0.070028  0.000000      0.002778
  0.466387  0.067227  0.000000      0.002778
  0.467787  0.064426  0.000000      0.002778
  0.469188  0.061625  0.000000      0.002778
  0.470588  0.058824  0.000000      0.002778
  0.471989  0.056022  0.000000      0.002778
  0.473389  0.053221  0.000000      0.002778
  0.474790  0.050420  0.000000      0.002778
  0.476190  0.047619  0.000000      0.002778
  0.477591  0.044818  0.000000      0.002778
  0.478992  0.042017  0.000000      0.002778
  0.480392  0.039216  0.000000      0.002778
  0.481793  0.036415  0.000000      0.002778
  0.483193  0.033613  0.000000      0.002778
  0.484594  0.030812  0.000000      0.002778
  0.485994  0.028011  0.000000      0.002778
  0.487395  0.025210  0.000000      0.002778
  0.488796  0.022409  0.000000      0.002778
  0.490196  0.019608  0.000000      0.002778
  0.491597  0.016807  0.000000      0.002778
  0.492997  0.014006  0.000000      0.002778
  0.494398  0.011204  0.000000      0.002778
  0.495798  0.008403  0.000000      0.002778
  0.497199  0.005602  0.000000      0.002778
  0.498599  0.002801  0.000000      0.002778
  0.500000  0.000000  0.000000      0.002778
  0.500000  0.000000  0.000000      0.002778
  0.495798  0.000000  0.000000      0.002778
  0.491597  0.000000  0.000000      0.002778
  0.487395  0.000000  0.000000      0.002778
  0.483193  0.000000  0.000000      0.002778
  0.478992  0.000000  0.000000      0.002778
  0.474790  0.000000  0.000000      0.002778
  0.470588  0.000000  0.000000      0.002778
  0.466387  0.000000  0.000000      0.002778
  0.462185  0.000000  0.000000      0.002778
  0.457983  0.000000  0.000000      0.002778
  0.453782  0.000000  0.000000      0.002778
  0.449580  0.000000  0.000000      0.002778
  0.445378  0.000000  0.000000      0.002778
  0.441176  0.000000  0.000000      0.002778
  0.436975  0.000000  0.000000      0.002778
  0.432773  0.000000  0.000000      0.002778
  0.428571  0.000000  0.000000      0.002778
  0.424370  0.000000  0.000000      0.002778
  0.420168  0.000000  0.000000      0.002778
  0.415966  0.000000  0.000000      0.002778
  0.411765  0.000000  0.000000      0.002778
  0.407563  0.000000  0.000000      0.002778
  0.403361  0.000000  0.000000      0.002778
  0.399160  0.000000  0.000000      0.002778
  0.394958  0.000000  0.000000      0.002778
  0.390756  0.000000  0.000000      0.002778
  0.386555  0.000000  0.000000      0.002778
  0.382353  0.000000  0.000000      0.002778
  0.378151  0.000000  0.000000      0.002778
  0.373950  0.000000  0.000000      0.002778
  0.369748  0.000000  0.000000      0.002778
  0.365546  0.000000  0.000000      0.002778
  0.361345  0.000000  0.000000      0.002778
  0.357143  0.000000  0.000000      0.002778
  0.352941  0.000000  0.000000      0.002778
  0.348739  0.000000  0.000000      0.002778
  0.344538  0.000000  0.000000      0.002778
  0.340336  0.000000  0.000000      0.002778
  0.336134  0.000000  0.000000      0.002778
  0.331933  0.000000  0.000000      0.002778
  0.327731  0.000000  0.000000      0.002778
  0.323529  0.000000  0.000000      0.002778
  0.319328  0.000000  0.000000      0.002778
  0.315126  0.000000  0.000000      0.002778
  0.310924  0.000000  0.000000      0.002778
  0.306723  0.000000  0.000000      0.002778
  0.302521  0.000000  0.000000      0.002778
  0.298319  0.000000  0.000000      0.002778
  0.294118  0.000000  0.000000      0.002778
  0.289916  0.000000  0.000000      0.002778
  0.285714  0.000000  0.000000      0.002778
  0.281513  0.000000  0.000000      0.002778
  0.277311  0.000000  0.000000      0.002778
  0.273109  0.000000  0.000000      0.002778
  0.268908  0.000000  0.000000      0.002778
  0.264706  0.000000  0.000000      0.002778
  0.260504  0.000000  0.000000      0.002778
  0.256303  0.000000  0.000000      0.002778
  0.252101  0.000000  0.000000      0.002778
  0.247899  0.000000  0.000000      0.002778
  0.243697  0.000000  0.000000      0.002778
  0.239496  0.000000  0.000000      0.002778
  0.235294  0.000000  0.000000      0.002778
  0.231092  0.000000  0.000000      0.002778
  0.226891  0.000000  0.000000      0.002778
  0.222689  0.000000  0.000000      0.002778
  0.218487  0.000000  0.000000      0.002778
  0.214286  0.000000  0.000000      0.002778
  0.210084  0.000000  0.000000      0.002778
  0.205882  0.000000  0.000000      0.002778
  0.201681  0.000000  0.000000      0.002778
  0.197479  0.000000  0.000000      0.002778
  0.193277  0.000000  0.000000      0.002778
  0.189076  0.000000  0.000000      0.002778
  0.184874  0.000000  0.000000      0.002778
  0.180672  0.000000  0.000000      0.002778
  0.176471  0.000000  0.000000      0.002778
  0.172269  0.000000  0.000000      0.002778
  0.168067  0.000000  0.000000      0.002778
  0.163866  0.000000  0.000000      0.002778
  0.159664  0.000000  0.000000      0.002778
  0.155462  0.000000  0.000000      0.002778
  0.151261  0.000000  0.000000      0.002778
  0.147059  0.000000  0.000000      0.002778
  0.142857  0.000000  0.000000      0.002778
  0.138655  0.000000  0.000000      0.002778
  0.134454  0.000000  0.000000      0.002778
  0.130252  0.000000  0.000000      0.002778
  0.126050  0.000000  0.000000      0.002778
  0.121849  0.000000  0.000000      0.002778
  0.117647  0.000000  0.000000      0.002778
  0.113445  0.000000  0.000000      0.002778
  0.109244  0.000000  0.000000      0.002778
  0.105042  0.000000  0.000000      0.002778
  0.100840  0.000000  0.000000      0.002778
  0.096639  0.000000  0.000000      0.002778
  0.092437  0.000000  0.000000      0.002778
  0.088235  0.000000  0.000000      0.002778
  0.084034  0.000000  0.000000      0.002778
  0.079832  0.000000  0.000000      0.002778
  0.075630  0.000000  0.000000      0.002778
  0.071429  0.000000  0.000000      0.002778
  0.067227  0.000000  0.000000      0.002778
  0.063025  0.000000  0.000000      0.002778
  0.058824  0.000000  0.000000      0.002778
  0.054622  0.000000  0.000000      0.002778
  0.050420  0.000000  0.000000      0.002778
  0.046218  0.000000  0.000000      0.002778
  0.042017  0.000000  0.000000      0.002778
  0.037815  0.000000  0.000000      0.002778
  0.033613  0.000000  0.000000      0.002778
  0.029412  0.000000  0.000000      0.002778
  0.025210  0.000000  0.000000      0.002778
  0.021008  0.000000  0.000000      0.002778
  0.016807  0.000000  0.000000      0.002778
  0.012605  0.000000  0.000000      0.002778
  0.008403  0.000000  0.000000      0.002778
  0.004202  0.000000  0.000000      0.002778
  0.000000  0.000000  0.000000      0.002778

 Following cartesian coordinates:
            Coordinates               Weight
  0.000000  0.000000  0.000000      0.002778
  0.000701  0.001214  0.000000      0.002778
  0.001402  0.002428  0.000000      0.002778
  0.002102  0.003642  0.000000      0.002778
  0.002803  0.004855  0.000000      0.002778
  0.003504  0.006069  0.000000      0.002778
  0.004205  0.007283  0.000000      0.002778
  0.004906  0.008497  0.000000      0.002778
  0.005607  0.009711  0.000000      0.002778
  0.006307  0.010925  0.000000      0.002778
  0.007008  0.012139  0.000000      0.002778
  0.007709  0.013353  0.000000      0.002778
  0.008410  0.014566  0.000000      0.002778
  0.009111  0.015780  0.000000      0.002778
  0.009812  0.016994  0.000000      0.002778
  0.010512  0.018208  0.000000      0.002778
  0.011213  0.019422  0.000000      0.002778
  0.011914  0.020636  0.000000      0.002778
  0.012615  0.021850  0.000000      0.002778
  0.013316  0.023064  0.000000      0.002778
  0.014017  0.024277  0.000000      0.002778
  0.014717  0.025491  0.000000      0.002778
  0.015418  0.026705  0.000000      0.002778
  0.016119  0.027919  0.000000      0.002778
  0.016820  0.029133  0.000000      0.002778
  0.017521  0.030347  0.000000      0.002778
  0.018222  0.031561  0.000000      0.002778
  0.018922  0.032774  0.000000      0.002778
  0.019623  0.033988  0.000000      0.002778
  0.020324  0.035202  0.000000      0.002778
  0.021025  0.036416  0.000000      0.002778
  0.021726  0.037630  0.000000      0.002778
  0.022426  0.038844  0.000000      0.002778
  0.023127  0.040058  0.000000      0.002778
  0.023828  0.041272  0.000000      0.002778
  0.024529  0.042485  0.000000      0.002778
  0.025230  0.043699  0.000000      0.002778
  0.025931  0.044913  0.000000      0.002778
  0.026631  0.046127  0.000000      0.002778
  0.027332  0.047341  0.000000      0.002778
  0.028033  0.048555  0.000000      0.002778
  0.028734  0.049769  0.000000      0.002778
  0.029435  0.050982  0.000000      0.002778
  0.030136  0.052196  0.000000      0.002778
  0.030836  0.053410  0.000000      0.002778
  0.031537  0.054624  0.000000      0.002778
  0.032238  0.055838  0.000000      0.002778
  0.032939  0.057052  0.000000      0.002778
  0.033640  0.058266  0.000000      0.002778
  0.034341  0.059480  0.000000      0.002778
  0.035041  0.060693  0.000000      0.002778
  0.035742  0.061907  0.000000      0.002778
  0.036443  0.063121  0.000000      0.002778
  0.037144  0.064335  0.000000      0.002778
  0.037845  0.065549  0.000000      0.002778
  0.038546  0.066763  0.000000      0.002778
  0.039246  0.067977  0.000000      0.002778
  0.039947  0.069191  0.000000      0.002778
  0.040648  0.070404  0.000000      0.002778
  0.041349  0.071618  0.000000      0.002778
  0.042050  0.072832  0.000000      0.002778
  0.042750  0.074046  0.000000      0.002778
  0.043451  0.075260  0.000000      0.002778
  0.044152  0.076474  0.000000      0.002778
  0.044853  0.077688  0.000000      0.002778
  0.045554  0.078901  0.000000      0.002778
  0.046255  0.080115  0.000000      0.002778
  0.046955  0.081329  0.000000      0.002778
  0.047656  0.082543  0.000000      0.002778
  0.048357  0.083757  0.000000      0.002778
  0.049058  0.084971  0.000000      0.002778
  0.049759  0.086185  0.000000      0.002778
  0.050460  0.087399  0.000000      0.002778
  0.051160  0.088612  0.000000      0.002778
  0.051861  0.089826  0.000000      0.002778
  0.052562  0.091040  0.000000      0.002778
  0.053263  0.092254  0.000000      0.002778
  0.053964  0.093468  0.000000      0.002778
  0.054665  0.094682  0.000000      0.002778
  0.055365  0.095896  0.000000      0.002778
  0.056066  0.097109  0.000000      0.002778
  0.056767  0.098323  0.000000      0.002778
  0.057468  0.099537  0.000000      0.002778
  0.058169  0.100751  0.000000      0.002778
  0.058869  0.101965  0.000000      0.002778
  0.059570  0.103179  0.000000      0.002778
  0.060271  0.104393  0.000000      0.002778
  0.060972  0.105607  0.000000      0.002778
  0.061673  0.106820  0.000000      0.002778
  0.062374  0.108034  0.000000      0.002778
  0.063074  0.109248  0.000000      0.002778
  0.063775  0.110462  0.000000      0.002778
  0.064476  0.111676  0.000000      0.002778
  0.065177  0.112890  0.000000      0.002778
  0.065878  0.114104  0.000000      0.002778
  0.066579  0.115318  0.000000      0.002778
  0.067279  0.116531  0.000000      0.002778
  0.067980  0.117745  0.000000      0.002778
  0.068681  0.118959  0.000000      0.002778
  0.069382  0.120173  0.000000      0.002778
  0.070083  0.121387  0.000000      0.002778
  0.070784  0.122601  0.000000      0.002778
  0.071484  0.123815  0.000000      0.002778
  0.072185  0.125028  0.000000      0.002778
  0.072886  0.126242  0.000000      0.002778
  0.073587  0.127456  0.000000      0.002778
  0.074288  0.128670  0.000000      0.002778
  0.074989  0.129884  0.000000      0.002778
  0.075689  0.131098  0.000000      0.002778
  0.076390  0.132312  0.000000      0.002778
  0.077091  0.133526  0.000000      0.002778
  0.077792  0.134739  0.000000      0.002778
  0.078493  0.135953  0.000000      0.002778
  0.079193  0.137167  0.000000      0.002778
  0.079894  0.138381  0.000000      0.002778
  0.080595  0.139595  0.000000      0.002778
  0.081296  0.140809  0.000000      0.002778
  0.081997  0.142023  0.000000      0.002778
  0.082698  0.143236  0.000000      0.002778
  0.083398  0.144450  0.000000      0.002778
  0.083398  0.144450  0.000000      0.002778
  0.083749  0.143843  0.000000      0.002778
  0.084099  0.143236  0.000000      0.002778
  0.084450  0.142630  0.000000      0.002778
  0.084800  0.142023  0.000000      0.002778
  0.085151  0.141416  0.000000      0.002778
  0.085501  0.140809  0.000000      0.002778
  0.085851  0.140202  0.000000      0.002778
  0.086202  0.139595  0.000000      0.002778
  0.086552  0.138988  0.000000      0.002778
  0.086903  0.138381  0.000000      0.002778
  0.087253  0.137774  0.000000      0.002778
  0.087603  0.137167  0.000000      0.002778
  0.087954  0.136560  0.000000      0.002778
  0.088304  0.135953  0.000000      0.002778
  0.088655  0.135346  0.000000      0.002778
  0.089005  0.134739  0.000000      0.002778
  0.089355  0.134132  0.000000      0.002778
  0.089706  0.133526  0.000000      0.002778
  0.090056  0.132919  0.000000      0.002778
  0.090407  0.132312  0.000000      0.002778
  0.090757  0.131705  0.000000      0.002778
  0.091108  0.131098  0.000000      0.002778
  0.091458  0.130491  0.000000      0.002778
  0.091808  0.129884  0.000000      0.002778
  0.092159  0.129277  0.000000      0.002778
  0.092509  0.128670  0.000000      0.002778
  0.092860  0.128063  0.000000      0.002778
  0.093210  0.127456  0.000000      0.002778
  0.093560  0.126849  0.000000      0.002778
  0.093911  0.126242  0.000000      0.002778
  0.094261  0.125635  0.000000      0.002778
  0.094612  0.125028  0.000000      0.002778
  0.094962  0.124422  0.000000      0.002778
  0.095313  0.123815  0.000000      0.002778
  0.095663  0.123208  0.000000      0.002778
  0.096013  0.122601  0.000000      0.002778
  0.096364  0.121994  0.000000      0.002778
  0.096714  0.121387  0.000000      0.002778
  0.097065  0.120780  0.000000      0.002778
  0.097415  0.120173  0.000000      0.002778
  0.097765  0.119566  0.000000      0.002778
  0.098116  0.118959  0.000000      0.002778
  0.098466  0.118352  0.000000      0.002778
  0.098817  0.117745  0.000000      0.002778
  0.099167  0.117138  0.000000      0.002778
  0.099517  0.116531  0.000000      0.002778
  0.099868  0.115924  0.000000      0.002778
  0.100218  0.115318  0.000000      0.002778
  0.100569  0.114711  0.000000      0.002778
  0.100919  0.114104  0.000000      0.002778
  0.101270  0.113497  0.000000      0.002778
  0.101620  0.112890  0.000000      0.002778
  0.101970  0.112283  0.000000      0.002778
  0.102321  0.111676  0.000000      0.002778
  0.102671  0.111069  0.000000      0.002778
  0.103022  0.110462  0.000000      0.002778
  0.103372  0.109855  0.000000      0.002778
  0.103722  0.109248  0.000000      0.002778
  0.104073  0.108641  0.000000      0.002778
  0.104423  0.108034  0.000000      0.002778
  0.104774  0.107427  0.000000      0.002778
  0.105124  0.106820  0.000000      0.002778
  0.105475  0.106214  0.000000      0.002778
  0.105825  0.105607  0.000000      0.002778
  0.106175  0.105000  0.000000      0.002778
  0.106526  0.104393  0.000000      0.002778
  0.106876  0.103786  0.000000      0.002778
  0.107227  0.103179  0.000000      0.002778
  0.107577  0.102572  0.000000      0.002778
  0.107927  0.101965  0.000000      0.002778
  0.108278  0.101358  0.000000      0.002778
  0.108628  0.100751  0.000000      0.002778
  0.108979  0.100144  0.000000      0.002778
  0.109329  0.099537  0.000000      0.002778
  0.109679  0.098930  0.000000      0.002778
  0.110030  0.098323  0.000000      0.002778
  0.110380  0.097716  0.000000      0.002778
  0.110731  0.097109  0.000000      0.002778
  0.111081  0.096503  0.000000      0.002778
  0.111432  0.095896  0.000000      0.002778
  0.111782  0.095289  0.000000      0.002778
  0.112132  0.094682  0.000000      0.002778
  0.112483  0.094075  0.000000      0.002778
  0.112833  0.093468  0.000000      0.002778
  0.113184  0.092861  0.000000      0.002778
  0.113534  0.092254  0.000000      0.002778
  0.113884  0.091647  0.000000      0.002778
  0.114235  0.091040  0.000000      0.002778
  0.114585  0.090433  0.000000      0.002778
  0.114936  0.089826  0.000000      0.002778
  0.115286  0.089219  0.000000      0.002778
  0.115637  0.088612  0.000000      0.002778
  0.115987  0.088005  0.000000      0.002778
  0.116337  0.087399  0.000000      0.002778
  0.116688  0.086792  0.000000      0.002778
  0.117038  0.086185  0.000000      0.002778
  0.117389  0.085578  0.000000      0.002778
  0.117739  0.084971  0.000000      0.002778
  0.118089  0.084364  0.000000      0.002778
  0.118440  0.083757  0.000000      0.002778
  0.118790  0.083150  0.000000      0.002778
  0.119141  0.082543  0.000000      0.002778
  0.119491  0.081936  0.000000      0.002778
  0.119841  0.081329  0.000000      0.002778
  0.120192  0.080722  0.000000      0.002778
  0.120542  0.080115  0.000000      0.002778
  0.120893  0.079508  0.000000      0.002778
  0.121243  0.078901  0.000000      0.002778
  0.121594  0.078295  0.000000      0.002778
  0.121944  0.077688  0.000000      0.002778
  0.122294  0.077081  0.000000      0.002778
  0.122645  0.076474  0.000000      0.002778
  0.122995  0.075867  0.000000      0.002778
  0.123346  0.075260  0.000000      0.002778
  0.123696  0.074653  0.000000      0.002778
  0.124046  0.074046  0.000000      0.002778
  0.124397  0.073439  0.000000      0.002778
  0.124747  0.072832  0.000000      0.002778
  0.125098  0.072225  0.000000      0.002778
  0.125098  0.072225  0.000000      0.002778
  0.124046  0.071618  0.000000      0.002778
  0.122995  0.071011  0.000000      0.002778
  0.121944  0.070404  0.000000      0.002778
  0.120893  0.069797  0.000000      0.002778
  0.119841  0.069191  0.000000      0.002778
  0.118790  0.068584  0.000000      0.002778
  0.117739  0.067977  0.000000      0.002778
  0.116688  0.067370  0.000000      0.002778
  0.115637  0.066763  0.000000      0.002778
  0.114585  0.066156  0.000000      0.002778
  0.113534  0.065549  0.000000      0.002778
  0.112483  0.064942  0.000000      0.002778
  0.111432  0.064335  0.000000      0.002778
  0.110380  0.063728  0.000000      0.002778
  0.109329  0.063121  0.000000      0.002778
  0.108278  0.062514  0.000000      0.002778
  0.107227  0.061907  0.000000      0.002778
  0.106175  0.061300  0.000000      0.002778
  0.105124  0.060693  0.000000      0.002778
  0.104073  0.060086  0.000000      0.002778
  0.103022  0.059480  0.000000      0.002778
  0.101970  0.058873  0.000000      0.002778
  0.100919  0.058266  0.000000      0.002778
  0.099868  0.057659  0.000000      0.002778
  0.098817  0.057052  0.000000      0.002778
  0.097765  0.056445  0.000000      0.002778
  0.096714  0.055838  0.000000      0.002778
  0.095663  0.055231  0.000000      0.002778
  0.094612  0.054624  0.000000      0.002778
  0.093560  0.054017  0.000000      0.002778
  0.092509  0.053410  0.000000      0.002778
  0.091458  0.052803  0.000000      0.002778
  0.090407  0.052196  0.000000      0.002778
  0.089355  0.051589  0.000000      0.002778
  0.088304  0.050982  0.000000      0.002778
  0.087253  0.050376  0.000000      0.002778
  0.086202  0.049769  0.000000      0.002778
  0.085151  0.049162  0.000000      0.002778
  0.084099  0.048555  0.000000      0.002778
  0.083048  0.047948  0.000000      0.002778
  0.081997  0.047341  0.000000      0.002778
  0.080946  0.046734  0.000000      0.002778
  0.079894  0.046127  0.000000      0.002778
  0.078843  0.045520  0.000000      0.002778
  0.077792  0.044913  0.000000      0.002778
  0.076741  0.044306  0.000000      0.002778
  0.075689  0.043699  0.000000      0.002778
  0.074638  0.043092  0.000000      0.002778
  0.073587  0.042485  0.000000      0.002778
  0.072536  0.041878  0.000000      0.002778
  0.071484  0.041272  0.000000      0.002778
  0.070433  0.040665  0.000000      0.002778
  0.069382  0.040058  0.000000      0.002778
  0.068331  0.039451  0.000000      0.002778
  0.067279  0.038844  0.000000      0.002778
  0.066228  0.038237  0.000000      0.002778
  0.065177  0.037630  0.000000      0.002778
  0.064126  0.037023  0.000000      0.002778
  0.063074  0.036416  0.000000      0.002778
  0.062023  0.035809  0.000000      0.002778
  0.060972  0.035202  0.000000      0.002778
  0.059921  0.034595  0.000000      0.002778
  0.058869  0.033988  0.000000      0.002778
  0.057818  0.033381  0.000000      0.002778
  0.056767  0.032774  0.000000      0.002778
  0.055716  0.032168  0.000000      0.002778
  0.054665  0.031561  0.000000      0.002778
  0.053613  0.030954  0.000000      0.002778
  0.052562  0.030347  0.000000      0.002778
  0.051511  0.029740  0.000000      0.002778
  0.050460  0.029133  0.000000      0.002778
  0.049408  0.028526  0.000000      0.002778
  0.048357  0.027919  0.000000      0.002778
  0.047306  0.027312  0.000000      0.002778
  0.046255  0.026705  0.000000      0.002778
  0.045203  0.026098  0.000000      0.002778
  0.044152  0.025491  0.000000      0.002778
  0.043101  0.024884  0.000000      0.002778
  0.042050  0.024277  0.000000      0.002778
  0.040998  0.023670  0.000000      0.002778
  0.039947  0.023064  0.000000      0.002778
  0.038896  0.022457  0.000000      0.002778
  0.037845  0.021850  0.000000      0.002778
  0.036793  0.021243  0.000000      0.002778
  0.035742  0.020636  0.000000      0.002778
  0.034691  0.020029  0.000000      0.002778
  0.033640  0.019422  0.000000      0.002778
  0.032588  0.018815  0.000000      0.002778
  0.031537  0.018208  0.000000      0.002778
  0.030486  0.017601  0.000000      0.002778
  0.029435  0.016994  0.000000      0.002778
  0.028384  0.016387  0.000000      0.002778
  0.027332  0.015780  0.000000      0.002778
  0.026281  0.015173  0.000000      0.002778
  0.025230  0.014566  0.000000      0.002778
  0.024179  0.013959  0.000000      0.002778
  0.023127  0.013353  0.000000      0.002778
  0.022076  0.012746  0.000000      0.002778
  0.021025  0.012139  0.000000      0.002778
  0.019974  0.011532  0.000000      0.002778
  0.018922  0.010925  0.000000      0.002778
  0.017871  0.010318  0.000000      0.002778
  0.016820  0.009711  0.000000      0.002778
  0.015769  0.009104  0.000000      0.002778
  0.014717  0.008497  0.000000      0.002778
  0.013666  0.007890  0.000000      0.002778
  0.012615  0.007283  0.000000      0.002778
  0.011564  0.006676  0.000000      0.002778
  0.010512  0.006069  0.000000      0.002778
  0.009461  0.005462  0.000000      0.002778
  0.008410  0.004855  0.000000      0.002778
  0.007359  0.004249  0.000000      0.002778
  0.006307  0.003642  0.000000      0.002778
  0.005256  0.003035  0.000000      0.002778
  0.004205  0.002428  0.000000      0.002778
  0.003154  0.001821  0.000000      0.002778
  0.002102  0.001214  0.000000      0.002778
  0.001051  0.000607  0.000000      0.002778
  0.000000  0.000000  0.000000      0.002778



--------------------------------------------------------------------------------------------------------




 Dimension of arrays:
   k-points           NKPTS =    360   k-points in BZ     NKDIM =    360   number of bands    NBANDS=     16
   number of dos      NEDOS =    301   number of ions     NIONS =      3
   non local maximal  LDIM  =      6   non local SUM 2l+1 LMDIM =     18
   total plane-waves  NPLWV = 172032
   max r-space proj   IRMAX =      1   max aug-charges    IRDMAX=  36116
   dimension x,y,z NGX =    32 NGY =   32 NGZ =  168
   dimension x,y,z NGXF=    64 NGYF=   64 NGZF=  336
   support grid    NGXF=    64 NGYF=   64 NGZF=  336
   ions per type =               1   2
   NGX,Y,Z   is equivalent  to a cutoff of  13.31, 13.31, 13.32 a.u.
   NGXF,Y,Z  is equivalent  to a cutoff of  26.62, 26.62, 26.64 a.u.

 SYSTEM =  PtS2                                    
 POSCAR =  PtTe                                    

 Startparameter for this run:
   NWRITE =      2    write-flag & timer
   PREC   = accura    normal or accurate (medium, high low for compatibility)
   ISTART =      0    job   : 0-new  1-cont  2-samecut
   ICHARG =     11    charge: 1-file 2-atom 10-const
   ISPIN  =      1    spin polarized calculation?
   LNONCOLLINEAR =      F non collinear calculations
   LSORBIT =      F    spin-orbit coupling
   INIWAV =      1    electr: 0-lowe 1-rand  2-diag
   LASPH  =      T    aspherical Exc in radial PAW
 Electronic Relaxation 1
   ENCUT  =  600.0 eV  44.10 Ry    6.64 a.u.   7.98  7.98 41.88*2*pi/ulx,y,z
   ENINI  =  600.0     initial cutoff
   ENAUG  =  368.8 eV  augmentation charge cutoff
   NELM   =    100;   NELMIN=  5; NELMDL= -5     # of ELM steps 
   EDIFF  = 0.1E-07   stopping-criterion for ELM
   LREAL  =      F    real-space projection
   NLSPLINE    = F    spline interpolate recip. space projectors
   LCOMPAT=      F    compatible to vasp.4.4
   GGA_COMPAT  = T    GGA compatible to vasp.4.4-vasp.4.6
   LMAXPAW     = -100 max onsite density
   LMAXMIX     =    4 max onsite mixed and CHGCAR
   VOSKOWN=      0    Vosko Wilk Nusair interpolation
   ROPT   =    0.00000   0.00000
 Ionic relaxation
   EDIFFG = 0.1E-06   stopping-criterion for IOM
   NSW    =      0    number of steps for IOM
   NBLOCK =      1;   KBLOCK =      1    inner block; outer block 
   IBRION =     -1    ionic relax: 0-MD 1-quasi-New 2-CG
   NFREE  =      0    steps in history (QN), initial steepest desc. (CG)
   ISIF   =      2    stress and relaxation
   IWAVPR =     10    prediction:  0-non 1-charg 2-wave 3-comb
   ISYM   =      2    0-nonsym 1-usesym 2-fastsym
   LCORR  =      T    Harris-Foulkes like correction to forces

   POTIM  = 0.5000    time-step for ionic-motion
   TEIN   =    0.0    initial temperature
   TEBEG  =    0.0;   TEEND  =   0.0 temperature during run
   SMASS  =  -3.00    Nose mass-parameter (am)
   estimated Nose-frequenzy (Omega)   =  0.10E-29 period in steps = 0.13E+47 mass=  -0.365E-27a.u.
   SCALEE = 1.0000    scale energy and forces
   NPACO  =    256;   APACO  = 10.0  distance and # of slots for P.C.
   PSTRESS=    0.0 pullay stress

  Mass of Ions in am
   POMASS = 195.08127.60
  Ionic Valenz
   ZVAL   =  10.00  6.00
  Atomic Wigner-Seitz radii
   RWIGS  =  -1.00 -1.00
  virtual crystal weights 
   VCA    =   1.00  1.00
   NELECT =      22.0000    total number of electrons
   NUPDOWN=      -1.0000    fix difference up-down

 DOS related values:
   EMIN   =  10.00;   EMAX   =-10.00  energy-range for DOS
   EFERMI =   0.00;   METHOD = LEGACY      
   ISMEAR =     0;   SIGMA  =   0.05  broadening in eV -4-tet -1-fermi 0-gaus

 Electronic relaxation 2 (details)
   IALGO  =     38    algorithm
   LDIAG  =      T    sub-space diagonalisation (order eigenvalues)
   LSUBROT=      F    optimize rotation matrix (better conditioning)
   TURBO    =      0    0=normal 1=particle mesh
   IRESTART =      0    0=no restart 2=restart with 2 vectors
   NREBOOT  =      0    no. of reboots
   NMIN     =      0    reboot dimension
   EREF     =   0.00    reference energy to select bands
   IMIX   =      4    mixing-type and parameters
     AMIX     =   0.40;   BMIX     =  1.00
     AMIX_MAG =   1.60;   BMIX_MAG =  1.00
     AMIN     =   0.10
     WC   =   100.;   INIMIX=   1;  MIXPRE=   1;  MAXMIX= -45

 Intra band minimization:
   WEIMIN = 0.0000     energy-eigenvalue tresh-hold
   EBREAK =  0.16E-09  absolut break condition
   DEPER  =   0.30     relativ break condition  

   TIME   =   0.40     timestep for ELM

  volume/ion in A,a.u.               =      96.69       652.49
  Fermi-wavevector in a.u.,A,eV,Ry     =   0.692973  1.309530  6.533681  0.480212
  Thomas-Fermi vector in A             =   1.775056

 Write flags
   LWAVE        =      F    write WAVECAR
   LDOWNSAMPLE  =      F    k-point downsampling of WAVECAR
   LCHARG       =      T    write CHGCAR
   LVTOT        =      F    write LOCPOT, total local potential
   LVHAR        =      F    write LOCPOT, Hartree potential only
   LELF         =      F    write electronic localiz. function (ELF)
   LORBIT       =     11    0 simple, 1 ext, 2 COOP (PROOUT), +10 PAW based schemes


 Dipole corrections
   LMONO  =      F    monopole corrections only (constant potential shift)
   LDIPOL =      F    correct potential (dipole corrections)
   IDIPOL =      0    1-x, 2-y, 3-z, 4-all directions 
   EPSILON=  1.0000000 bulk dielectric constant

 LDA+U is selected, type is set to LDAUTYPE =  2
   angular momentum for each species LDAUL =     2   -1
   U (eV)           for each species LDAUU =   3.0  0.0
   J (eV)           for each species LDAUJ =   0.0  0.0
 Exchange correlation treatment:
   GGA     =    --    GGA type
   LEXCH   =     8    internal setting for exchange type
   LIBXC   =     F    Libxc                    
   VOSKOWN =     0    Vosko Wilk Nusair interpolation
   LHFCALC =     F    Hartree Fock is set to
   LHFONE  =     F    Hartree Fock one center treatment
   AEXX    =    0.0000 exact exchange contribution

 Linear response parameters
   LEPSILON=     F    determine dielectric tensor
   LRPA    =     F    only Hartree local field effects (RPA)
   LNABLA  =     F    use nabla operator in PAW spheres
   LVEL    =     F    velocity operator in full k-point grid
   CSHIFT  =0.1000    complex shift for real part using Kramers Kronig
   OMEGAMAX=  -1.0    maximum frequency
   DEG_THRESHOLD= 0.2000000E-02 threshold for treating states as degnerate
   RTIME   =   -0.100 relaxation time in fs
  (WPLASMAI=    0.000 imaginary part of plasma frequency in eV, 0.658/RTIME)
   DFIELD  = 0.0000000 0.0000000 0.0000000 field for delta impulse in time

  Optional k-point grid parameters
   LKPOINTS_OPT  =     F    use optional k-point grid
   KPOINTS_OPT_MODE=     1    mode for optional k-point grid

 Orbital magnetization related:
   ORBITALMAG=     F  switch on orbital magnetization
   LCHIMAG   =     F  perturbation theory with respect to B field
   DQ        =  0.001000  dq finite difference perturbation B field
   LLRAUG    =     F  two centre corrections for induced B field
   LBONE     =     F  B-component reconstruction in AE one-centre
   LVGVCALC  =     T  calculate vGv susceptibility
   LVGVAPPL  =     F  apply vGv susceptibility instead of pGv for G=0

 Random number generation:
   RANDOM_GENERATOR = DEFAULT
   PCG_SEED         = not used


--------------------------------------------------------------------------------------------------------


 Static calculation
 charge density and potential remain constant during run
 non-spin polarized calculation
 Variant of blocked Davidson
 Davidson routine will perform the subspace rotation
 perform sub-space diagonalisation
    after iterative eigenvector-optimisation
 no mixing
 using additional bands            5
 reciprocal scheme for non local part
 use partial core corrections
 calculate Harris-corrections to forces   (improved forces if not selfconsistent)
 use gradient corrections 
 WARNING: stress and forces are not correct
  (second derivative of E(xc) not defined)
 use of overlap-Matrix (Vanderbilt PP)
 Gauss-broadening in eV      SIGMA  =   0.05


--------------------------------------------------------------------------------------------------------


  energy-cutoff  :      600.00
  volume of cell :      290.07
      direct lattice vectors                 reciprocal lattice vectors
     3.996876585  0.000000000  0.000000000     0.250195366  0.144450362 -0.000000000
    -1.998438292  3.461396658  0.000000000     0.000000000  0.288900724  0.000000000
     0.000000000  0.000000000 20.966483140     0.000000000 -0.000000000  0.047695171

  length of vectors
     3.996876585  3.996876585 20.966483140     0.288900724  0.288900724  0.047695171



 k-points in units of 2pi/SCALE and weight: HEX (hexagonal) G-M-K-G                 
   0.00000000  0.00000000  0.00000000       0.003
   0.00070083  0.00121387  0.00000000       0.003
   0.00140165  0.00242774  0.00000000       0.003
   0.00210248  0.00364161  0.00000000       0.003
   0.00280331  0.00485547  0.00000000       0.003
   0.00350414  0.00606934  0.00000000       0.003
   0.00420496  0.00728321  0.00000000       0.003
   0.00490579  0.00849708  0.00000000       0.003
   0.00560662  0.00971095  0.00000000       0.003
   0.00630745  0.01092482  0.00000000       0.003
   0.00700827  0.01213869  0.00000000       0.003
   0.00770910  0.01335255  0.00000000       0.003
   0.00840993  0.01456642  0.00000000       0.003
   0.00911076  0.01578029  0.00000000       0.003
   0.00981158  0.01699416  0.00000000       0.003
   0.01051241  0.01820803  0.00000000       0.003
   0.01121324  0.01942190  0.00000000       0.003
   0.01191406  0.02063577  0.00000000       0.003
   0.01261489  0.02184963  0.00000000       0.003
   0.01331572  0.02306350  0.00000000       0.003
   0.01401655  0.02427737  0.00000000       0.003
   0.01471737  0.02549124  0.00000000       0.003
   0.01541820  0.02670511  0.00000000       0.003
   0.01611903  0.02791898  0.00000000       0.003
   0.01681986  0.02913285  0.00000000       0.003
   0.01752068  0.03034671  0.00000000       0.003
   0.01822151  0.03156058  0.00000000       0.003
   0.01892234  0.03277445  0.00000000       0.003
   0.01962317  0.03398832  0.00000000       0.003
   0.02032399  0.03520219  0.00000000       0.003
   0.02102482  0.03641606  0.00000000       0.003
   0.02172565  0.03762993  0.00000000       0.003
   0.02242648  0.03884379  0.00000000       0.003
   0.02312730  0.04005766  0.00000000       0.003
   0.02382813  0.04127153  0.00000000       0.003
   0.02452896  0.04248540  0.00000000       0.003
   0.02522978  0.04369927  0.00000000       0.003
   0.02593061  0.04491314  0.00000000       0.003
   0.02663144  0.04612701  0.00000000       0.003
   0.02733227  0.04734087  0.00000000       0.003
   0.02803309  0.04855474  0.00000000       0.003
   0.02873392  0.04976861  0.00000000       0.003
   0.02943475  0.05098248  0.00000000       0.003
   0.03013558  0.05219635  0.00000000       0.003
   0.03083640  0.05341022  0.00000000       0.003
   0.03153723  0.05462409  0.00000000       0.003
   0.03223806  0.05583795  0.00000000       0.003
   0.03293889  0.05705182  0.00000000       0.003
   0.03363971  0.05826569  0.00000000       0.003
   0.03434054  0.05947956  0.00000000       0.003
   0.03504137  0.06069343  0.00000000       0.003
   0.03574219  0.06190730  0.00000000       0.003
   0.03644302  0.06312117  0.00000000       0.003
   0.03714385  0.06433503  0.00000000       0.003
   0.03784468  0.06554890  0.00000000       0.003
   0.03854550  0.06676277  0.00000000       0.003
   0.03924633  0.06797664  0.00000000       0.003
   0.03994716  0.06919051  0.00000000       0.003
   0.04064799  0.07040438  0.00000000       0.003
   0.04134881  0.07161825  0.00000000       0.003
   0.04204964  0.07283211  0.00000000       0.003
   0.04275047  0.07404598  0.00000000       0.003
   0.04345130  0.07525985  0.00000000       0.003
   0.04415212  0.07647372  0.00000000       0.003
   0.04485295  0.07768759  0.00000000       0.003
   0.04555378  0.07890146  0.00000000       0.003
   0.04625461  0.08011533  0.00000000       0.003
   0.04695543  0.08132919  0.00000000       0.003
   0.04765626  0.08254306  0.00000000       0.003
   0.04835709  0.08375693  0.00000000       0.003
   0.04905791  0.08497080  0.00000000       0.003
   0.04975874  0.08618467  0.00000000       0.003
   0.05045957  0.08739854  0.00000000       0.003
   0.05116040  0.08861241  0.00000000       0.003
   0.05186122  0.08982627  0.00000000       0.003
   0.05256205  0.09104014  0.00000000       0.003
   0.05326288  0.09225401  0.00000000       0.003
   0.05396371  0.09346788  0.00000000       0.003
   0.05466453  0.09468175  0.00000000       0.003
   0.05536536  0.09589562  0.00000000       0.003
   0.05606619  0.09710949  0.00000000       0.003
   0.05676702  0.09832335  0.00000000       0.003
   0.05746784  0.09953722  0.00000000       0.003
   0.05816867  0.10075109  0.00000000       0.003
   0.05886950  0.10196496  0.00000000       0.003
   0.05957032  0.10317883  0.00000000       0.003
   0.06027115  0.10439270  0.00000000       0.003
   0.06097198  0.10560657  0.00000000       0.003
   0.06167281  0.10682043  0.00000000       0.003
   0.06237363  0.10803430  0.00000000       0.003
   0.06307446  0.10924817  0.00000000       0.003
   0.06377529  0.11046204  0.00000000       0.003
   0.06447612  0.11167591  0.00000000       0.003
   0.06517694  0.11288978  0.00000000       0.003
   0.06587777  0.11410365  0.00000000       0.003
   0.06657860  0.11531751  0.00000000       0.003
   0.06727943  0.11653138  0.00000000       0.003
   0.06798025  0.11774525  0.00000000       0.003
   0.06868108  0.11895912  0.00000000       0.003
   0.06938191  0.12017299  0.00000000       0.003
   0.07008273  0.12138686  0.00000000       0.003
   0.07078356  0.12260073  0.00000000       0.003
   0.07148439  0.12381459  0.00000000       0.003
   0.07218522  0.12502846  0.00000000       0.003
   0.07288604  0.12624233  0.00000000       0.003
   0.07358687  0.12745620  0.00000000       0.003
   0.07428770  0.12867007  0.00000000       0.003
   0.07498853  0.12988394  0.00000000       0.003
   0.07568935  0.13109781  0.00000000       0.003
   0.07639018  0.13231167  0.00000000       0.003
   0.07709101  0.13352554  0.00000000       0.003
   0.07779184  0.13473941  0.00000000       0.003
   0.07849266  0.13595328  0.00000000       0.003
   0.07919349  0.13716715  0.00000000       0.003
   0.07989432  0.13838102  0.00000000       0.003
   0.08059515  0.13959489  0.00000000       0.003
   0.08129597  0.14080875  0.00000000       0.003
   0.08199680  0.14202262  0.00000000       0.003
   0.08269763  0.14323649  0.00000000       0.003
   0.08339845  0.14445036  0.00000000       0.003
   0.08339845  0.14445036  0.00000000       0.003
   0.08374887  0.14384343  0.00000000       0.003
   0.08409928  0.14323649  0.00000000       0.003
   0.08444970  0.14262956  0.00000000       0.003
   0.08480011  0.14202262  0.00000000       0.003
   0.08515052  0.14141569  0.00000000       0.003
   0.08550094  0.14080875  0.00000000       0.003
   0.08585135  0.14020182  0.00000000       0.003
   0.08620176  0.13959489  0.00000000       0.003
   0.08655218  0.13898795  0.00000000       0.003
   0.08690259  0.13838102  0.00000000       0.003
   0.08725301  0.13777408  0.00000000       0.003
   0.08760342  0.13716715  0.00000000       0.003
   0.08795383  0.13656021  0.00000000       0.003
   0.08830425  0.13595328  0.00000000       0.003
   0.08865466  0.13534635  0.00000000       0.003
   0.08900507  0.13473941  0.00000000       0.003
   0.08935549  0.13413248  0.00000000       0.003
   0.08970590  0.13352554  0.00000000       0.003
   0.09005631  0.13291861  0.00000000       0.003
   0.09040673  0.13231167  0.00000000       0.003
   0.09075714  0.13170474  0.00000000       0.003
   0.09110756  0.13109781  0.00000000       0.003
   0.09145797  0.13049087  0.00000000       0.003
   0.09180838  0.12988394  0.00000000       0.003
   0.09215880  0.12927700  0.00000000       0.003
   0.09250921  0.12867007  0.00000000       0.003
   0.09285962  0.12806313  0.00000000       0.003
   0.09321004  0.12745620  0.00000000       0.003
   0.09356045  0.12684927  0.00000000       0.003
   0.09391087  0.12624233  0.00000000       0.003
   0.09426128  0.12563540  0.00000000       0.003
   0.09461169  0.12502846  0.00000000       0.003
   0.09496211  0.12442153  0.00000000       0.003
   0.09531252  0.12381459  0.00000000       0.003
   0.09566293  0.12320766  0.00000000       0.003
   0.09601335  0.12260073  0.00000000       0.003
   0.09636376  0.12199379  0.00000000       0.003
   0.09671417  0.12138686  0.00000000       0.003
   0.09706459  0.12077992  0.00000000       0.003
   0.09741500  0.12017299  0.00000000       0.003
   0.09776542  0.11956605  0.00000000       0.003
   0.09811583  0.11895912  0.00000000       0.003
   0.09846624  0.11835219  0.00000000       0.003
   0.09881666  0.11774525  0.00000000       0.003
   0.09916707  0.11713832  0.00000000       0.003
   0.09951748  0.11653138  0.00000000       0.003
   0.09986790  0.11592445  0.00000000       0.003
   0.10021831  0.11531751  0.00000000       0.003
   0.10056873  0.11471058  0.00000000       0.003
   0.10091914  0.11410365  0.00000000       0.003
   0.10126955  0.11349671  0.00000000       0.003
   0.10161997  0.11288978  0.00000000       0.003
   0.10197038  0.11228284  0.00000000       0.003
   0.10232079  0.11167591  0.00000000       0.003
   0.10267121  0.11106897  0.00000000       0.003
   0.10302162  0.11046204  0.00000000       0.003
   0.10337203  0.10985511  0.00000000       0.003
   0.10372245  0.10924817  0.00000000       0.003
   0.10407286  0.10864124  0.00000000       0.003
   0.10442328  0.10803430  0.00000000       0.003
   0.10477369  0.10742737  0.00000000       0.003
   0.10512410  0.10682044  0.00000000       0.003
   0.10547452  0.10621350  0.00000000       0.003
   0.10582493  0.10560657  0.00000000       0.003
   0.10617534  0.10499963  0.00000000       0.003
   0.10652576  0.10439270  0.00000000       0.003
   0.10687617  0.10378576  0.00000000       0.003
   0.10722659  0.10317883  0.00000000       0.003
   0.10757700  0.10257190  0.00000000       0.003
   0.10792741  0.10196496  0.00000000       0.003
   0.10827783  0.10135803  0.00000000       0.003
   0.10862824  0.10075109  0.00000000       0.003
   0.10897865  0.10014416  0.00000000       0.003
   0.10932907  0.09953722  0.00000000       0.003
   0.10967948  0.09893029  0.00000000       0.003
   0.11002989  0.09832336  0.00000000       0.003
   0.11038031  0.09771642  0.00000000       0.003
   0.11073072  0.09710949  0.00000000       0.003
   0.11108114  0.09650255  0.00000000       0.003
   0.11143155  0.09589562  0.00000000       0.003
   0.11178196  0.09528868  0.00000000       0.003
   0.11213238  0.09468175  0.00000000       0.003
   0.11248279  0.09407482  0.00000000       0.003
   0.11283320  0.09346788  0.00000000       0.003
   0.11318362  0.09286095  0.00000000       0.003
   0.11353403  0.09225401  0.00000000       0.003
   0.11388445  0.09164708  0.00000000       0.003
   0.11423486  0.09104014  0.00000000       0.003
   0.11458527  0.09043321  0.00000000       0.003
   0.11493569  0.08982628  0.00000000       0.003
   0.11528610  0.08921934  0.00000000       0.003
   0.11563651  0.08861241  0.00000000       0.003
   0.11598693  0.08800547  0.00000000       0.003
   0.11633734  0.08739854  0.00000000       0.003
   0.11668775  0.08679160  0.00000000       0.003
   0.11703817  0.08618467  0.00000000       0.003
   0.11738858  0.08557774  0.00000000       0.003
   0.11773900  0.08497080  0.00000000       0.003
   0.11808941  0.08436387  0.00000000       0.003
   0.11843982  0.08375693  0.00000000       0.003
   0.11879024  0.08315000  0.00000000       0.003
   0.11914065  0.08254306  0.00000000       0.003
   0.11949106  0.08193613  0.00000000       0.003
   0.11984148  0.08132920  0.00000000       0.003
   0.12019189  0.08072226  0.00000000       0.003
   0.12054231  0.08011533  0.00000000       0.003
   0.12089272  0.07950839  0.00000000       0.003
   0.12124313  0.07890146  0.00000000       0.003
   0.12159355  0.07829452  0.00000000       0.003
   0.12194396  0.07768759  0.00000000       0.003
   0.12229437  0.07708066  0.00000000       0.003
   0.12264479  0.07647372  0.00000000       0.003
   0.12299520  0.07586679  0.00000000       0.003
   0.12334561  0.07525985  0.00000000       0.003
   0.12369603  0.07465292  0.00000000       0.003
   0.12404644  0.07404598  0.00000000       0.003
   0.12439686  0.07343905  0.00000000       0.003
   0.12474727  0.07283212  0.00000000       0.003
   0.12509768  0.07222518  0.00000000       0.003
   0.12509768  0.07222518  0.00000000       0.003
   0.12404644  0.07161825  0.00000000       0.003
   0.12299520  0.07101131  0.00000000       0.003
   0.12194396  0.07040438  0.00000000       0.003
   0.12089272  0.06979744  0.00000000       0.003
   0.11984148  0.06919051  0.00000000       0.003
   0.11879024  0.06858358  0.00000000       0.003
   0.11773900  0.06797664  0.00000000       0.003
   0.11668775  0.06736971  0.00000000       0.003
   0.11563651  0.06676277  0.00000000       0.003
   0.11458527  0.06615584  0.00000000       0.003
   0.11353403  0.06554890  0.00000000       0.003
   0.11248279  0.06494197  0.00000000       0.003
   0.11143155  0.06433504  0.00000000       0.003
   0.11038031  0.06372810  0.00000000       0.003
   0.10932907  0.06312117  0.00000000       0.003
   0.10827783  0.06251423  0.00000000       0.003
   0.10722659  0.06190730  0.00000000       0.003
   0.10617534  0.06130036  0.00000000       0.003
   0.10512410  0.06069343  0.00000000       0.003
   0.10407286  0.06008650  0.00000000       0.003
   0.10302162  0.05947956  0.00000000       0.003
   0.10197038  0.05887263  0.00000000       0.003
   0.10091914  0.05826569  0.00000000       0.003
   0.09986790  0.05765876  0.00000000       0.003
   0.09881666  0.05705182  0.00000000       0.003
   0.09776542  0.05644489  0.00000000       0.003
   0.09671418  0.05583796  0.00000000       0.003
   0.09566293  0.05523102  0.00000000       0.003
   0.09461169  0.05462409  0.00000000       0.003
   0.09356045  0.05401715  0.00000000       0.003
   0.09250921  0.05341022  0.00000000       0.003
   0.09145797  0.05280328  0.00000000       0.003
   0.09040673  0.05219635  0.00000000       0.003
   0.08935549  0.05158941  0.00000000       0.003
   0.08830425  0.05098248  0.00000000       0.003
   0.08725301  0.05037555  0.00000000       0.003
   0.08620176  0.04976861  0.00000000       0.003
   0.08515052  0.04916168  0.00000000       0.003
   0.08409928  0.04855474  0.00000000       0.003
   0.08304804  0.04794781  0.00000000       0.003
   0.08199680  0.04734087  0.00000000       0.003
   0.08094556  0.04673394  0.00000000       0.003
   0.07989432  0.04612701  0.00000000       0.003
   0.07884308  0.04552007  0.00000000       0.003
   0.07779184  0.04491314  0.00000000       0.003
   0.07674060  0.04430620  0.00000000       0.003
   0.07568935  0.04369927  0.00000000       0.003
   0.07463811  0.04309233  0.00000000       0.003
   0.07358687  0.04248540  0.00000000       0.003
   0.07253563  0.04187847  0.00000000       0.003
   0.07148439  0.04127153  0.00000000       0.003
   0.07043315  0.04066460  0.00000000       0.003
   0.06938191  0.04005766  0.00000000       0.003
   0.06833067  0.03945073  0.00000000       0.003
   0.06727943  0.03884379  0.00000000       0.003
   0.06622819  0.03823686  0.00000000       0.003
   0.06517694  0.03762993  0.00000000       0.003
   0.06412570  0.03702299  0.00000000       0.003
   0.06307446  0.03641606  0.00000000       0.003
   0.06202322  0.03580912  0.00000000       0.003
   0.06097198  0.03520219  0.00000000       0.003
   0.05992074  0.03459525  0.00000000       0.003
   0.05886950  0.03398832  0.00000000       0.003
   0.05781826  0.03338139  0.00000000       0.003
   0.05676702  0.03277445  0.00000000       0.003
   0.05571577  0.03216752  0.00000000       0.003
   0.05466453  0.03156058  0.00000000       0.003
   0.05361329  0.03095365  0.00000000       0.003
   0.05256205  0.03034671  0.00000000       0.003
   0.05151081  0.02973978  0.00000000       0.003
   0.05045957  0.02913285  0.00000000       0.003
   0.04940833  0.02852591  0.00000000       0.003
   0.04835709  0.02791898  0.00000000       0.003
   0.04730585  0.02731204  0.00000000       0.003
   0.04625461  0.02670511  0.00000000       0.003
   0.04520336  0.02609817  0.00000000       0.003
   0.04415212  0.02549124  0.00000000       0.003
   0.04310088  0.02488431  0.00000000       0.003
   0.04204964  0.02427737  0.00000000       0.003
   0.04099840  0.02367044  0.00000000       0.003
   0.03994716  0.02306350  0.00000000       0.003
   0.03889592  0.02245657  0.00000000       0.003
   0.03784468  0.02184963  0.00000000       0.003
   0.03679344  0.02124270  0.00000000       0.003
   0.03574220  0.02063577  0.00000000       0.003
   0.03469095  0.02002883  0.00000000       0.003
   0.03363971  0.01942190  0.00000000       0.003
   0.03258847  0.01881496  0.00000000       0.003
   0.03153723  0.01820803  0.00000000       0.003
   0.03048599  0.01760109  0.00000000       0.003
   0.02943475  0.01699416  0.00000000       0.003
   0.02838351  0.01638723  0.00000000       0.003
   0.02733227  0.01578029  0.00000000       0.003
   0.02628103  0.01517336  0.00000000       0.003
   0.02522978  0.01456642  0.00000000       0.003
   0.02417854  0.01395949  0.00000000       0.003
   0.02312730  0.01335255  0.00000000       0.003
   0.02207606  0.01274562  0.00000000       0.003
   0.02102482  0.01213869  0.00000000       0.003
   0.01997358  0.01153175  0.00000000       0.003
   0.01892234  0.01092482  0.00000000       0.003
   0.01787110  0.01031788  0.00000000       0.003
   0.01681986  0.00971095  0.00000000       0.003
   0.01576862  0.00910401  0.00000000       0.003
   0.01471737  0.00849708  0.00000000       0.003
   0.01366613  0.00789015  0.00000000       0.003
   0.01261489  0.00728321  0.00000000       0.003
   0.01156365  0.00667628  0.00000000       0.003
   0.01051241  0.00606934  0.00000000       0.003
   0.00946117  0.00546241  0.00000000       0.003
   0.00840993  0.00485547  0.00000000       0.003
   0.00735869  0.00424854  0.00000000       0.003
   0.00630745  0.00364161  0.00000000       0.003
   0.00525621  0.00303467  0.00000000       0.003
   0.00420496  0.00242774  0.00000000       0.003
   0.00315372  0.00182080  0.00000000       0.003
   0.00210248  0.00121387  0.00000000       0.003
   0.00105124  0.00060693  0.00000000       0.003
   0.00000000  0.00000000  0.00000000       0.003

 k-points in reciprocal lattice and weights: HEX (hexagonal) G-M-K-G                 
   0.00000000  0.00000000  0.00000000       0.003
   0.00280112  0.00280112  0.00000000       0.003
   0.00560224  0.00560224  0.00000000       0.003
   0.00840336  0.00840336  0.00000000       0.003
   0.01120448  0.01120448  0.00000000       0.003
   0.01400560  0.01400560  0.00000000       0.003
   0.01680672  0.01680672  0.00000000       0.003
   0.01960784  0.01960784  0.00000000       0.003
   0.02240896  0.02240896  0.00000000       0.003
   0.02521008  0.02521008  0.00000000       0.003
   0.02801120  0.02801120  0.00000000       0.003
   0.03081232  0.03081232  0.00000000       0.003
   0.03361345  0.03361345  0.00000000       0.003
   0.03641457  0.03641457  0.00000000       0.003
   0.03921569  0.03921569  0.00000000       0.003
   0.04201681  0.04201681  0.00000000       0.003
   0.04481793  0.04481793  0.00000000       0.003
   0.04761905  0.04761905  0.00000000       0.003
   0.05042017  0.05042017  0.00000000       0.003
   0.05322129  0.05322129  0.00000000       0.003
   0.05602241  0.05602241  0.00000000       0.003
   0.05882353  0.05882353  0.00000000       0.003
   0.06162465  0.06162465  0.00000000       0.003
   0.06442577  0.06442577  0.00000000       0.003
   0.06722689  0.06722689  0.00000000       0.003
   0.07002801  0.07002801  0.00000000       0.003
   0.07282913  0.07282913  0.00000000       0.003
   0.07563025  0.07563025  0.00000000       0.003
   0.07843137  0.07843137  0.00000000       0.003
   0.08123249  0.08123249  0.00000000       0.003
   0.08403361  0.08403361  0.00000000       0.003
   0.08683473  0.08683473  0.00000000       0.003
   0.08963585  0.08963585  0.00000000       0.003
   0.09243697  0.09243697  0.00000000       0.003
   0.09523809  0.09523809  0.00000000       0.003
   0.09803921  0.09803921  0.00000000       0.003
   0.10084034  0.10084034  0.00000000       0.003
   0.10364146  0.10364146  0.00000000       0.003
   0.10644258  0.10644258  0.00000000       0.003
   0.10924370  0.10924370  0.00000000       0.003
   0.11204482  0.11204482  0.00000000       0.003
   0.11484594  0.11484594  0.00000000       0.003
   0.11764706  0.11764706  0.00000000       0.003
   0.12044818  0.12044818  0.00000000       0.003
   0.12324930  0.12324930  0.00000000       0.003
   0.12605042  0.12605042  0.00000000       0.003
   0.12885154  0.12885154  0.00000000       0.003
   0.13165266  0.13165266  0.00000000       0.003
   0.13445378  0.13445378  0.00000000       0.003
   0.13725490  0.13725490  0.00000000       0.003
   0.14005602  0.14005602  0.00000000       0.003
   0.14285714  0.14285714  0.00000000       0.003
   0.14565826  0.14565826  0.00000000       0.003
   0.14845938  0.14845938  0.00000000       0.003
   0.15126050  0.15126050  0.00000000       0.003
   0.15406162  0.15406162  0.00000000       0.003
   0.15686274  0.15686274  0.00000000       0.003
   0.15966386  0.15966386  0.00000000       0.003
   0.16246498  0.16246498  0.00000000       0.003
   0.16526610  0.16526610  0.00000000       0.003
   0.16806723  0.16806723  0.00000000       0.003
   0.17086835  0.17086835  0.00000000       0.003
   0.17366947  0.17366947  0.00000000       0.003
   0.17647059  0.17647059  0.00000000       0.003
   0.17927171  0.17927171  0.00000000       0.003
   0.18207283  0.18207283  0.00000000       0.003
   0.18487395  0.18487395  0.00000000       0.003
[...]
      4      -6.8355      2.00000
      5      -6.8084      2.00000
      6      -5.4574      2.00000
      7      -5.4564      2.00000
      8      -3.7690      2.00000
      9      -2.0973      2.00000
     10      -1.5631      2.00000
     11      -1.4502      2.00000
     12       0.5695      0.00000
     13       0.7742      0.00000
     14       2.4410      0.00000
     15       2.7415      0.00000
     16       3.3338      0.00000

 k-point   348 :       0.0504    0.0000    0.0000
  band No.  band energies     occupation 
      1     -14.2805      2.00000
      2     -12.3423      2.00000
      3      -6.8826      2.00000
      4      -6.8346      2.00000
      5      -6.8113      2.00000
      6      -5.4550      2.00000
      7      -5.4542      2.00000
      8      -3.7625      2.00000
      9      -2.1046      2.00000
     10      -1.5425      2.00000
     11      -1.4451      2.00000
     12       0.6034      0.00000
     13       0.7809      0.00000
     14       2.4280      0.00000
     15       2.7278      0.00000
     16       3.3134      0.00000

 k-point   349 :       0.0462    0.0000    0.0000
  band No.  band energies     occupation 
      1     -14.2849      2.00000
      2     -12.3423      2.00000
      3      -6.8862      2.00000
      4      -6.8336      2.00000
      5      -6.8139      2.00000
      6      -5.4528      2.00000
      7      -5.4522      2.00000
      8      -3.7566      2.00000
      9      -2.1114      2.00000
     10      -1.5233      2.00000
     11      -1.4403      2.00000
     12       0.6354      0.00000
     13       0.7872      0.00000
     14       2.4158      0.00000
     15       2.7143      0.00000
     16       3.2939      0.00000

 k-point   350 :       0.0420    0.0000    0.0000
  band No.  band energies     occupation 
      1     -14.2889      2.00000
      2     -12.3423      2.00000
      3      -6.8894      2.00000
      4      -6.8327      2.00000
      5      -6.8163      2.00000
      6      -5.4508      2.00000
      7      -5.4504      2.00000
      8      -3.7511      2.00000
      9      -2.1177      2.00000
     10      -1.5054      2.00000
     11      -1.4361      2.00000
     12       0.6656      0.00000
     13       0.7931      0.00000
     14       2.4045      0.00000
     15       2.7012      0.00000
     16       3.2760      0.00000

 k-point   351 :       0.0378    0.0000    0.0000
  band No.  band energies     occupation 
      1     -14.2926      2.00000
      2     -12.3422      2.00000
      3      -6.8923      2.00000
      4      -6.8318      2.00000
      5      -6.8185      2.00000
      6      -5.4490      2.00000
      7      -5.4487      2.00000
      8      -3.7462      2.00000
      9      -2.1235      2.00000
     10      -1.4890      2.00000
     11      -1.4322      2.00000
     12       0.6936      0.00000
     13       0.7985      0.00000
     14       2.3940      0.00000
     15       2.6886      0.00000
     16       3.2600      0.00000

 k-point   352 :       0.0336    0.0000    0.0000
  band No.  band energies     occupation 
      1     -14.2958      2.00000
      2     -12.3422      2.00000
      3      -6.8950      2.00000
      4      -6.8310      2.00000
      5      -6.8205      2.00000
      6      -5.4474      2.00000
      7      -5.4472      2.00000
      8      -3.7418      2.00000
      9      -2.1287      2.00000
     10      -1.4741      2.00000
     11      -1.4288      2.00000
     12       0.7193      0.00000
     13       0.8034      0.00000
     14       2.3846      0.00000
     15       2.6766      0.00000
     16       3.2448      0.00000

 k-point   353 :       0.0294    0.0000    0.0000
  band No.  band energies     occupation 
      1     -14.2987      2.00000
      2     -12.3422      2.00000
      3      -6.8974      2.00000
      4      -6.8303      2.00000
      5      -6.8222      2.00000
      6      -5.4460      2.00000
      7      -5.4459      2.00000
      8      -3.7380      2.00000
      9      -2.1333      2.00000
     10      -1.4607      2.00000
     11      -1.4258      2.00000
     12       0.7426      0.00000
     13       0.8078      0.00000
     14       2.3761      0.00000
     15       2.6654      0.00000
     16       3.2317      0.00000

 k-point   354 :       0.0252    0.0000    0.0000
  band No.  band energies     occupation 
      1     -14.3012      2.00000
      2     -12.3422      2.00000
      3      -6.8994      2.00000
      4      -6.8297      2.00000
      5      -6.8237      2.00000
      6      -5.4448      2.00000
      7      -5.4447      2.00000
      8      -3.7347      2.00000
      9      -2.1373      2.00000
     10      -1.4490      2.00000
     11      -1.4232      2.00000
     12       0.7632      0.00000
     13       0.8116      0.00000
     14       2.3687      0.00000
     15       2.6552      0.00000
     16       3.2203      0.00000

 k-point   355 :       0.0210    0.0000    0.0000
  band No.  band energies     occupation 
      1     -14.3033      2.00000
      2     -12.3422      2.00000
      3      -6.9012      2.00000
      4      -6.8292      2.00000
      5      -6.8250      2.00000
      6      -5.4438      2.00000
      7      -5.4437      2.00000
      8      -3.7318      2.00000
      9      -2.1407      2.00000
     10      -1.4390      2.00000
     11      -1.4210      2.00000
     12       0.7809      0.00000
     13       0.8149      0.00000
     14       2.3623      0.00000
     15       2.6462      0.00000
     16       3.2108      0.00000

 k-point   356 :       0.0168    0.0000    0.0000
  band No.  band energies     occupation 
      1     -14.3050      2.00000
      2     -12.3422      2.00000
      3      -6.9026      2.00000
      4      -6.8287      2.00000
      5      -6.8260      2.00000
      6      -5.4429      2.00000
      7      -5.4429      2.00000
      8      -3.7295      2.00000
      9      -2.1435      2.00000
     10      -1.4308      2.00000
     11      -1.4192      2.00000
     12       0.7957      0.00000
     13       0.8176      0.00000
     14       2.3571      0.00000
     15       2.6386      0.00000
     16       3.2025      0.00000

 k-point   357 :       0.0126    0.0000    0.0000
  band No.  band energies     occupation 
      1     -14.3064      2.00000
      2     -12.3422      2.00000
      3      -6.9037      2.00000
      4      -6.8284      2.00000
      5      -6.8269      2.00000
      6      -5.4423      2.00000
      7      -5.4422      2.00000
      8      -3.7278      2.00000
      9      -2.1457      2.00000
     10      -1.4244      2.00000
     11      -1.4178      2.00000
     12       0.8073      0.00000
     13       0.8198      0.00000
     14       2.3530      0.00000
     15       2.6324      0.00000
     16       3.1963      0.00000

 k-point   358 :       0.0084    0.0000    0.0000
  band No.  band energies     occupation 
      1     -14.3074      2.00000
      2     -12.3422      2.00000
      3      -6.9045      2.00000
      4      -6.8281      2.00000
      5      -6.8274      2.00000
      6      -5.4418      2.00000
      7      -5.4418      2.00000
      8      -3.7265      2.00000
      9      -2.1472      2.00000
     10      -1.4197      2.00000
     11      -1.4168      2.00000
     12       0.8157      0.00000
     13       0.8213      0.00000
     14       2.3501      0.00000
     15       2.6280      0.00000
     16       3.1919      0.00000

 k-point   359 :       0.0042    0.0000    0.0000
  band No.  band energies     occupation 
      1     -14.3079      2.00000
      2     -12.3422      2.00000
      3      -6.9050      2.00000
      4      -6.8279      2.00000
      5      -6.8278      2.00000
      6      -5.4415      2.00000
      7      -5.4415      2.00000
      8      -3.7257      2.00000
      9      -2.1482      2.00000
     10      -1.4169      2.00000
     11      -1.4162      2.00000
     12       0.8208      0.00000
     13       0.8222      0.00000
     14       2.3483      0.00000
     15       2.6252      0.00000
     16       3.1892      0.00000

 k-point   360 :       0.0000    0.0000    0.0000
  band No.  band energies     occupation 
      1     -14.3081      2.00000
      2     -12.3422      2.00000
      3      -6.9051      2.00000
      4      -6.8279      2.00000
      5      -6.8279      2.00000
      6      -5.4414      2.00000
      7      -5.4414      2.00000
      8      -3.7255      2.00000
      9      -2.1485      2.00000
     10      -1.4160      2.00000
     11      -1.4160      2.00000
     12       0.8225      0.00000
     13       0.8225      0.00000
     14       2.3477      0.00000
     15       2.6243      0.00000
     16       3.1883      0.00000


--------------------------------------------------------------------------------------------------------


 soft charge-density along one line, spin component           1
         0         1         2         3         4         5         6         7         8         9
 total charge-density along one line

 pseudopotential strength for first ion, spin component:           1
 -8.150  -0.000  -0.000  -0.000  -0.000   0.000  -0.196   0.000   0.000  -0.000  -8.251  -0.000  -0.000  -0.000  -0.000   0.000
 -0.000  -0.000  -8.007   0.000   0.000  -0.000   0.000  -0.000  -0.196  -0.000  -0.000  -0.000  -8.105   0.000   0.000  -0.000
 -0.000   0.000   0.000  -0.000  -8.272  -0.000  -0.000  -0.000   0.000   0.000  -0.000   0.000   0.000  -0.000  -8.379  -0.000
 -0.196  -0.000   0.000  -0.000  -0.000  -0.000  -8.007  -0.000  -0.000  -0.000  -0.202  -0.000   0.000  -0.000  -0.000  -0.000
  0.000  -0.000  -0.196   0.000   0.000   0.000  -0.000  -0.000  -8.150  -0.000   0.000  -0.000  -0.202   0.000   0.000   0.000
 -8.251  -0.000  -0.000  -0.000  -0.000   0.000  -0.202   0.000   0.000  -0.000  -8.343  -0.000  -0.000  -0.000  -0.000   0.000
 -0.000  -0.000  -8.105   0.000   0.000  -0.000   0.000  -0.000  -0.202  -0.000  -0.000  -0.000  -8.193   0.000   0.000  -0.000
 -0.000   0.000   0.000  -0.000  -8.379  -0.000  -0.000  -0.000   0.000   0.000  -0.000   0.000   0.000  -0.000  -8.477  -0.000
 -0.202  -0.000   0.000  -0.000  -0.000  -0.000  -8.105  -0.000  -0.000  -0.000  -0.210  -0.000   0.000  -0.000  -0.000  -0.000
  0.000  -0.000  -0.202   0.000   0.000   0.000  -0.000  -0.000  -8.251  -0.000   0.000  -0.000  -0.210   0.000   0.000   0.000
 -0.000   0.000  -0.000   0.000  -0.009  -0.000   0.000   0.000   0.000   0.000  -0.000   0.000  -0.000   0.000  -0.009  -0.000
 -0.000   0.000  -0.000   0.000  -0.013  -0.000   0.000   0.000   0.000   0.000  -0.000   0.000  -0.000   0.000  -0.013  -0.000
 -0.000  -0.000  -0.000  -0.000   0.000   0.000  -0.000  -0.000   0.000   0.000  -0.000  -0.000  -0.000  -0.000   0.000   0.000
 -0.000  -0.000  -0.000  -0.000  -0.000  -0.000  -0.000  -0.000   0.000  -0.000  -0.000  -0.000  -0.000  -0.000  -0.000  -0.000
 -0.000  -0.000  -0.000  -0.000   0.000   0.000  -0.000  -0.000  -0.000  -0.000  -0.000  -0.000  -0.000  -0.000   0.000   0.000
 -0.000  -0.000  -0.000  -0.000   0.000   0.000  -0.000  -0.000   0.000   0.000  -0.000  -0.000  -0.000  -0.000   0.000   0.000
 -0.000  -0.000  -0.000  -0.000  -0.000  -0.000  -0.000  -0.000   0.000  -0.000  -0.000  -0.000  -0.000  -0.000  -0.000  -0.000
 -0.000  -0.000  -0.000  -0.000   0.000   0.000  -0.000  -0.000  -0.000  -0.000  -0.000  -0.000  -0.000  -0.000   0.000   0.000
 total augmentation occupancy for first ion, spin component:           1
  1.800   0.000   0.000   0.000   0.000   0.000   0.000   0.000   0.000   0.000   0.000   0.000   0.000   0.000   0.000   0.000
  0.000   1.800   0.000   0.000   0.000   0.000   0.000   0.000   0.000   0.000   0.000   0.000   0.000   0.000   0.000   0.000
  0.000   0.000   1.800   0.000   0.000   0.000   0.000   0.000   0.000   0.000   0.000   0.000   0.000   0.000   0.000   0.000
  0.000   0.000   0.000   1.800   0.000   0.000   0.000   0.000   0.000   0.000   0.000   0.000   0.000   0.000   0.000   0.000
  0.000   0.000   0.000   0.000   1.800   0.000   0.000   0.000   0.000   0.000   0.000   0.000   0.000   0.000   0.000   0.000
  0.000   0.000   0.000   0.000   0.000   0.000   0.000   0.000   0.000   0.000   0.000   0.000   0.000   0.000   0.000   0.000
  0.000   0.000   0.000   0.000   0.000   0.000   0.000   0.000   0.000   0.000   0.000   0.000   0.000   0.000   0.000   0.000
  0.000   0.000   0.000   0.000   0.000   0.000   0.000   0.000   0.000   0.000   0.000   0.000   0.000   0.000   0.000   0.000
  0.000   0.000   0.000   0.000   0.000   0.000   0.000   0.000   0.000   0.000   0.000   0.000   0.000   0.000   0.000   0.000
  0.000   0.000   0.000   0.000   0.000   0.000   0.000   0.000   0.000   0.000   0.000   0.000   0.000   0.000   0.000   0.000
  0.000   0.000   0.000   0.000   0.000   0.000   0.000   0.000   0.000   0.000   1.000   0.000   0.000   0.000   0.000   0.000
  0.000   0.000   0.000   0.000   0.000   0.000   0.000   0.000   0.000   0.000   0.000   0.000   0.000   0.000   0.000   0.000
  0.000   0.000   0.000   0.000   0.000   0.000   0.000   0.000   0.000   0.000   0.000   0.000   0.000   0.000   0.000   0.000
  0.000   0.000   0.000   0.000   0.000   0.000   0.000   0.000   0.000   0.000   0.000   0.000   0.000   0.000   0.000   0.000
  0.000   0.000   0.000   0.000   0.000   0.000   0.000   0.000   0.000   0.000   0.000   0.000   0.000   0.000   0.000   0.000
  0.000   0.000   0.000   0.000   0.000   0.000   0.000   0.000   0.000   0.000   0.000   0.000   0.000   0.000   0.000   0.000
  0.000   0.000   0.000   0.000   0.000   0.000   0.000   0.000   0.000   0.000   0.000   0.000   0.000   0.000   0.000   0.000
  0.000   0.000   0.000   0.000   0.000   0.000   0.000   0.000   0.000   0.000   0.000   0.000   0.000   0.000   0.000   0.000


------------------------ aborting loop because EDIFF is reached ----------------------------------------





 total charge

# of ion       s       p       d       tot
------------------------------------------
    1        0.645   0.623   8.263   9.531
    2        1.382   1.914   0.050   3.347
    3        1.382   1.914   0.050   3.347
--------------------------------------------------
tot          3.410   4.452   8.362  16.224

    CHARGE:  cpu time      0.5436: real time      0.5462
    FORLOC:  cpu time      0.0047: real time      0.0047
    FORNL :  cpu time      1.1135: real time      1.1184
    STRESS:  cpu time      4.6068: real time      4.6276
    FORCOR:  cpu time      0.0694: real time      0.0698
    FORHAR:  cpu time      0.0203: real time      0.0205
    OFIELD:  cpu time      0.0006: real time      0.0006

  FORCE on cell =-STRESS in cart. coord.  units (eV):
  Direction    XX          YY          ZZ          XY          YZ          ZX
  --------------------------------------------------------------------------------------
  Alpha Z     7.86629     7.86629     7.86629
  Ewald    3353.81596  3353.81596 -4161.53151    -0.00000    -0.00000     0.00000
  Hartree  3550.60522  3550.60522 -3445.74720    -0.00000     0.00000    -0.00000
  E(xc)     -92.20592   -92.20592   -92.69391     0.00000     0.00000    -0.00000
  Local   -7295.04604 -7295.04604  7208.41139    -0.00000    -0.00000     0.00000
  n-local   228.14378   226.23996   227.75174     3.82159     1.20571     3.99524
  augment    -0.41109    -0.41108    -0.21306     0.00002     0.00000    -0.00001
  Kinetic   248.67021   247.81868   255.37265     2.44330     0.99472     3.27152
  Fock        0.00000     0.00000     0.00000     0.00000     0.00000     0.00000
  -------------------------------------------------------------------------------------
  Total       0.06073     0.06073    -0.78361     0.00000     0.00000     0.00000
  in kB       0.33545     0.33545    -4.32824     0.00000     0.00000     0.00000
  external pressure =       -1.22 kB  Pullay stress =        0.00 kB


 VOLUME and BASIS-vectors are now :
 -----------------------------------------------------------------------------
  energy-cutoff  :      600.00
  volume of cell :      290.07
      direct lattice vectors                 reciprocal lattice vectors
     3.996876585  0.000000000  0.000000000     0.250195366  0.144450362 -0.000000000
    -1.998438292  3.461396658  0.000000000     0.000000000  0.288900724  0.000000000
     0.000000000  0.000000000 20.966483140     0.000000000 -0.000000000  0.047695171

  length of vectors
     3.996876585  3.996876585 20.966483140     0.288900724  0.288900724  0.047695171


 FORCES acting on ions
    electron-ion (+dipol)            ewald-force                    non-local-force                 convergence-correction
 -----------------------------------------------------------------------------------------------
   -.267E-13 -.119E-13 0.130E-11   0.204E-14 0.285E-13 -.568E-13   0.000E+00 0.000E+00 0.000E+00   -.234E-12 -.117E-12 0.117E-11
   0.135E-06 -.780E-07 -.428E+03   0.181E-11 -.108E-11 0.435E+03   -.141E-17 0.759E-18 -.623E+01   0.719E-04 -.415E-04 -.440E+00
   -.135E-06 0.780E-07 0.428E+03   -.181E-11 0.105E-11 -.435E+03   0.556E-17 -.759E-18 0.623E+01   -.719E-04 0.415E-04 0.440E+00
 -----------------------------------------------------------------------------------------------
   0.518E-12 0.279E-12 -.199E-11   -.920E-15 0.733E-14 -.568E-13   0.415E-17 0.000E+00 0.000E+00   -.144E-12 -.150E-12 0.252E-11


 POSITION                                       TOTAL-FORCE (eV/Angst)
 -----------------------------------------------------------------------------------
      0.00000      0.00000     10.48324         0.000000      0.000000      0.000000
     -0.00000      2.30760     11.87334         0.000000      0.000000      0.072551
      1.99844      1.15380      9.09314        -0.000000     -0.000000     -0.072551
 -----------------------------------------------------------------------------------
    total drift:                                0.000000      0.000000      0.000000


--------------------------------------------------------------------------------------------------------



  FREE ENERGIE OF THE ION-ELECTRON SYSTEM (eV)
  ---------------------------------------------------
  free  energy   TOTEN  =       -11.11899162 eV

  energy  without entropy=      -11.11899162  energy(sigma->0) =      -11.11899162



--------------------------------------------------------------------------------------------------------


    POTLOK:  cpu time      0.2205: real time      0.2214


--------------------------------------------------------------------------------------------------------


     LOOP+:  cpu time     93.4402: real time     94.2059
    4ORBIT:  cpu time      0.0000: real time      0.0000



 total charge

# of ion       s       p       d       tot
------------------------------------------
    1        0.645   0.623   8.263   9.531
    2        1.382   1.914   0.050   3.347
    3        1.382   1.914   0.050   3.347
--------------------------------------------------
tot          3.410   4.452   8.362  16.224


 total amount of memory used by VASP MPI-rank0   218484. kBytes
=======================================================================

   base      :      30000. kBytes
   nonl-proj :     143974. kBytes
   fftplans  :       5002. kBytes
   grid      :       7053. kBytes
   one-center:         15. kBytes
   wavefun   :      32440. kBytes

  
  
 General timing and accounting informations for this job:
 ========================================================
  
                  Total CPU time used (sec):      105.006
                            User time (sec):      103.752
                          System time (sec):        1.254
                         Elapsed time (sec):      106.948
  
                   Maximum memory used (kb):      448716.
                   Average memory used (kb):          N/A
  
                          Minor page faults:        60687
                          Major page faults:           16
                 Voluntary context switches:         4545
